MODEL 1
REMARK VINA RESULT:    -5.268      0.000      0.000
REMARK INTER + INTRA:          -7.225
REMARK INTER:                  -6.500
REMARK INTRA:                  -0.725
REMARK UNBOUND:                -0.725
REMARK SMILES Cc1ccc(C(=O)c2cc(O)c(O)c([N+](=O)[O-])c2)cc1
REMARK SMILES IDX 8 1 18 2 9 3 14 4 10 5 12 6 6 7 7 8 5 9 4 10 19 11 3 12
REMARK SMILES IDX 20 13 2 14 1 15 15 16 17 17 16 18 11 19 13 21
REMARK H PARENT 11 20 13 22
ROOT
ATOM      1  C   UNL     1      -0.523   5.924  -6.381  1.00  0.00     0.033 A 
ATOM      2  C   UNL     1       0.753   5.437  -6.211  1.00  0.00     0.102 A 
ATOM      3  C   UNL     1      -1.611   5.415  -5.712  1.00  0.00     0.063 A 
ATOM      4  C   UNL     1       0.951   4.382  -5.320  1.00  0.00     0.315 A 
ATOM      5  C   UNL     1      -1.413   4.359  -4.822  1.00  0.00     0.165 A 
ATOM      6  C   UNL     1      -0.131   3.843  -4.626  1.00  0.00     0.237 A 
ENDROOT
BRANCH   1   7
ATOM      7  C   UNL     1      -0.736   7.054  -7.335  1.00  0.00     0.193 C 
ATOM      8  O   UNL     1      -1.627   7.871  -7.059  1.00  0.00    -0.289 OA
BRANCH   7   9
ATOM      9  C   UNL     1       0.056   7.213  -8.544  1.00  0.00     0.023 A 
ATOM     10  C   UNL     1      -0.438   6.756  -9.766  1.00  0.00     0.012 A 
ATOM     11  C   UNL     1       1.309   7.823  -8.482  1.00  0.00     0.012 A 
ATOM     12  C   UNL     1       0.322   6.909 -10.926  1.00  0.00     0.004 A 
ATOM     13  C   UNL     1       2.069   7.976  -9.642  1.00  0.00     0.004 A 
ATOM     14  C   UNL     1       1.576   7.519 -10.865  1.00  0.00    -0.051 A 
ATOM     15  C   UNL     1       2.387   7.681 -12.104  1.00  0.00     0.044 C 
ENDBRANCH   7   9
ENDBRANCH   1   7
BRANCH   4  16
ATOM     16  N   UNL     1       2.264   3.869  -5.134  1.00  0.00     0.066 N 
ATOM     17  O   UNL     1       3.243   4.636  -5.300  1.00  0.00    -0.258 OA
ATOM     18  O   UNL     1       2.404   2.667  -4.809  1.00  0.00    -0.258 OA
ENDBRANCH   4  16
BRANCH   5  19
ATOM     19  O   UNL     1      -2.479   3.842  -4.150  1.00  0.00    -0.504 OA
ATOM     20  H   UNL     1      -3.288   4.314  -4.410  1.00  0.00     0.293 HD
ENDBRANCH   5  19
BRANCH   6  21
ATOM     21  O   UNL     1       0.050   2.811  -3.752  1.00  0.00    -0.500 OA
ATOM     22  H   UNL     1       0.740   3.043  -3.111  1.00  0.00     0.294 HD
ENDBRANCH   6  21
TORSDOF 5
ENDMDL
MODEL 2
REMARK VINA RESULT:    -5.199      2.009      3.533
REMARK INTER + INTRA:          -7.140
REMARK INTER:                  -6.381
REMARK INTRA:                  -0.759
REMARK UNBOUND:                -0.725
REMARK SMILES Cc1ccc(C(=O)c2cc(O)c(O)c([N+](=O)[O-])c2)cc1
REMARK SMILES IDX 8 1 18 2 9 3 14 4 10 5 12 6 6 7 7 8 5 9 4 10 19 11 3 12
REMARK SMILES IDX 20 13 2 14 1 15 15 16 17 17 16 18 11 19 13 21
REMARK H PARENT 11 20 13 22
ROOT
ATOM      1  C   UNL     1       0.672   4.867  -7.218  1.00  0.00     0.033 A 
ATOM      2  C   UNL     1      -0.644   4.755  -6.833  1.00  0.00     0.102 A 
ATOM      3  C   UNL     1       1.715   4.398  -6.456  1.00  0.00     0.063 A 
ATOM      4  C   UNL     1      -0.932   4.138  -5.616  1.00  0.00     0.315 A 
ATOM      5  C   UNL     1       1.428   3.781  -5.239  1.00  0.00     0.165 A 
ATOM      6  C   UNL     1       0.103   3.650  -4.819  1.00  0.00     0.237 A 
ENDROOT
BRANCH   1   7
ATOM      7  C   UNL     1       0.981   5.529  -8.522  1.00  0.00     0.193 C 
ATOM      8  O   UNL     1       1.868   5.019  -9.223  1.00  0.00    -0.289 OA
BRANCH   7   9
ATOM      9  C   UNL     1       0.285   6.723  -8.974  1.00  0.00     0.023 A 
ATOM     10  C   UNL     1       0.847   7.982  -8.758  1.00  0.00     0.012 A 
ATOM     11  C   UNL     1      -0.944   6.610  -9.624  1.00  0.00     0.012 A 
ATOM     12  C   UNL     1       0.179   9.127  -9.192  1.00  0.00     0.004 A 
ATOM     13  C   UNL     1      -1.612   7.756 -10.059  1.00  0.00     0.004 A 
ATOM     14  C   UNL     1      -1.050   9.014  -9.843  1.00  0.00    -0.051 A 
ATOM     15  C   UNL     1      -1.764  10.239 -10.306  1.00  0.00     0.044 C 
ENDBRANCH   7   9
ENDBRANCH   1   7
BRANCH   4  16
ATOM     16  N   UNL     1      -2.287   4.014  -5.204  1.00  0.00     0.066 N 
ATOM     17  O   UNL     1      -3.166   3.789  -6.071  1.00  0.00    -0.258 OA
ATOM     18  O   UNL     1      -2.564   4.133  -3.988  1.00  0.00    -0.258 OA
ENDBRANCH   4  16
BRANCH   5  19
ATOM     19  O   UNL     1       2.449   3.309  -4.471  1.00  0.00    -0.504 OA
ATOM     20  H   UNL     1       2.726   3.994  -3.840  1.00  0.00     0.293 HD
ENDBRANCH   5  19
BRANCH   6  21
ATOM     21  O   UNL     1      -0.166   3.044  -3.626  1.00  0.00    -0.500 OA
ATOM     22  H   UNL     1      -0.463   2.134  -3.783  1.00  0.00     0.294 HD
ENDBRANCH   6  21
TORSDOF 5
ENDMDL
MODEL 3
REMARK VINA RESULT:    -4.672      3.656      6.515
REMARK INTER + INTRA:          -6.489
REMARK INTER:                  -5.530
REMARK INTRA:                  -0.959
REMARK UNBOUND:                -0.725
REMARK SMILES Cc1ccc(C(=O)c2cc(O)c(O)c([N+](=O)[O-])c2)cc1
REMARK SMILES IDX 8 1 18 2 9 3 14 4 10 5 12 6 6 7 7 8 5 9 4 10 19 11 3 12
REMARK SMILES IDX 20 13 2 14 1 15 15 16 17 17 16 18 11 19 13 21
REMARK H PARENT 11 20 13 22
ROOT
ATOM      1  C   UNL     1      -0.440   7.213  -9.641  1.00  0.00     0.033 A 
ATOM      2  C   UNL     1       0.661   7.098 -10.457  1.00  0.00     0.102 A 
ATOM      3  C   UNL     1      -1.279   8.302  -9.668  1.00  0.00     0.063 A 
ATOM      4  C   UNL     1       0.938   8.130 -11.353  1.00  0.00     0.315 A 
ATOM      5  C   UNL     1      -1.002   9.335 -10.564  1.00  0.00     0.165 A 
ATOM      6  C   UNL     1       0.107   9.249 -11.407  1.00  0.00     0.237 A 
ENDROOT
BRANCH   1   7
ATOM      7  C   UNL     1      -0.737   6.107  -8.681  1.00  0.00     0.193 C 
ATOM      8  O   UNL     1      -1.868   5.599  -8.731  1.00  0.00    -0.289 OA
BRANCH   7   9
ATOM      9  C   UNL     1       0.241   5.626  -7.719  1.00  0.00     0.023 A 
ATOM     10  C   UNL     1       0.484   4.257  -7.596  1.00  0.00     0.012 A 
ATOM     11  C   UNL     1       0.938   6.532  -6.920  1.00  0.00     0.012 A 
ATOM     12  C   UNL     1       1.423   3.796  -6.673  1.00  0.00     0.004 A 
ATOM     13  C   UNL     1       1.877   6.071  -5.997  1.00  0.00     0.004 A 
ATOM     14  C   UNL     1       2.120   4.703  -5.873  1.00  0.00    -0.051 A 
ATOM     15  C   UNL     1       3.122   4.209  -4.886  1.00  0.00     0.044 C 
ENDBRANCH   7   9
ENDBRANCH   1   7
BRANCH   4  16
ATOM     16  N   UNL     1       2.072   8.025 -12.204  1.00  0.00     0.066 N 
ATOM     17  O   UNL     1       2.032   8.564 -13.336  1.00  0.00    -0.258 OA
ATOM     18  O   UNL     1       3.078   7.398 -11.798  1.00  0.00    -0.258 OA
ENDBRANCH   4  16
BRANCH   5  19
ATOM     19  O   UNL     1      -1.823  10.422 -10.605  1.00  0.00    -0.504 OA
ATOM     20  H   UNL     1      -2.712  10.147 -10.882  1.00  0.00     0.293 HD
ENDBRANCH   5  19
BRANCH   6  21
ATOM     21  O   UNL     1       0.367  10.266 -12.279  1.00  0.00    -0.500 OA
ATOM     22  H   UNL     1       0.612   9.900 -13.143  1.00  0.00     0.294 HD
ENDBRANCH   6  21
TORSDOF 5
ENDMDL
MODEL 4
REMARK VINA RESULT:    -4.667      3.804      7.092
REMARK INTER + INTRA:          -6.483
REMARK INTER:                  -5.508
REMARK INTRA:                  -0.975
REMARK UNBOUND:                -0.725
REMARK SMILES Cc1ccc(C(=O)c2cc(O)c(O)c([N+](=O)[O-])c2)cc1
REMARK SMILES IDX 8 1 18 2 9 3 14 4 10 5 12 6 6 7 7 8 5 9 4 10 19 11 3 12
REMARK SMILES IDX 20 13 2 14 1 15 15 16 17 17 16 18 11 19 13 21
REMARK H PARENT 11 20 13 22
ROOT
ATOM      1  C   UNL     1      -0.248   7.260  -9.740  1.00  0.00     0.033 A 
ATOM      2  C   UNL     1      -0.975   8.425  -9.823  1.00  0.00     0.102 A 
ATOM      3  C   UNL     1       0.817   6.985 -10.564  1.00  0.00     0.063 A 
ATOM      4  C   UNL     1      -0.614   9.369 -10.784  1.00  0.00     0.315 A 
ATOM      5  C   UNL     1       1.178   7.929 -11.526  1.00  0.00     0.165 A 
ATOM      6  C   UNL     1       0.462   9.122 -11.636  1.00  0.00     0.237 A 
ENDROOT
BRANCH   1   7
ATOM      7  C   UNL     1      -0.634   6.248  -8.711  1.00  0.00     0.193 C 
ATOM      8  O   UNL     1      -1.811   5.858  -8.711  1.00  0.00    -0.289 OA
BRANCH   7   9
ATOM      9  C   UNL     1       0.312   5.725  -7.738  1.00  0.00     0.023 A 
ATOM     10  C   UNL     1       1.028   6.601  -6.922  1.00  0.00     0.012 A 
ATOM     11  C   UNL     1       0.503   4.349  -7.621  1.00  0.00     0.012 A 
ATOM     12  C   UNL     1       1.935   6.099  -5.988  1.00  0.00     0.004 A 
ATOM     13  C   UNL     1       1.410   3.846  -6.687  1.00  0.00     0.004 A 
ATOM     14  C   UNL     1       2.126   4.722  -5.871  1.00  0.00    -0.051 A 
ATOM     15  C   UNL     1       3.097   4.186  -4.874  1.00  0.00     0.044 C 
ENDBRANCH   7   9
ENDBRANCH   1   7
BRANCH   4  16
ATOM     16  N   UNL     1      -1.356  10.578 -10.881  1.00  0.00     0.066 N 
ATOM     17  O   UNL     1      -1.414  11.167 -11.987  1.00  0.00    -0.258 OA
ATOM     18  O   UNL     1      -1.930  11.021  -9.858  1.00  0.00    -0.258 OA
ENDBRANCH   4  16
BRANCH   5  19
ATOM     19  O   UNL     1       2.232   7.674 -12.351  1.00  0.00    -0.504 OA
ATOM     20  H   UNL     1       2.024   6.913 -12.918  1.00  0.00     0.293 HD
ENDBRANCH   5  19
BRANCH   6  21
ATOM     21  O   UNL     1       0.825  10.038 -12.580  1.00  0.00    -0.500 OA
ATOM     22  H   UNL     1       1.788  10.031 -12.688  1.00  0.00     0.294 HD
ENDBRANCH   6  21
TORSDOF 5
ENDMDL
MODEL 5
REMARK VINA RESULT:    -4.664      3.759      6.937
REMARK INTER + INTRA:          -6.480
REMARK INTER:                  -5.574
REMARK INTRA:                  -0.906
REMARK UNBOUND:                -0.725
REMARK SMILES Cc1ccc(C(=O)c2cc(O)c(O)c([N+](=O)[O-])c2)cc1
REMARK SMILES IDX 8 1 18 2 9 3 14 4 10 5 12 6 6 7 7 8 5 9 4 10 19 11 3 12
REMARK SMILES IDX 20 13 2 14 1 15 15 16 17 17 16 18 11 19 13 21
REMARK H PARENT 11 20 13 22
ROOT
ATOM      1  C   UNL     1       0.643   7.841  -9.218  1.00  0.00     0.033 A 
ATOM      2  C   UNL     1       1.443   7.664 -10.323  1.00  0.00     0.102 A 
ATOM      3  C   UNL     1      -0.402   8.734  -9.188  1.00  0.00     0.063 A 
ATOM      4  C   UNL     1       1.182   8.424 -11.463  1.00  0.00     0.315 A 
ATOM      5  C   UNL     1      -0.662   9.495 -10.328  1.00  0.00     0.165 A 
ATOM      6  C   UNL     1       0.130   9.339 -11.466  1.00  0.00     0.237 A 
ENDROOT
BRANCH   1   7
ATOM      7  C   UNL     1       0.922   7.028  -7.996  1.00  0.00     0.193 C 
ATOM      8  O   UNL     1       2.079   7.048  -7.551  1.00  0.00    -0.289 OA
BRANCH   7   9
ATOM      9  C   UNL     1      -0.103   6.235  -7.336  1.00  0.00     0.023 A 
ATOM     10  C   UNL     1      -0.365   6.424  -5.979  1.00  0.00     0.012 A 
ATOM     11  C   UNL     1      -0.826   5.287  -8.060  1.00  0.00     0.012 A 
ATOM     12  C   UNL     1      -1.348   5.664  -5.346  1.00  0.00     0.004 A 
ATOM     13  C   UNL     1      -1.810   4.526  -7.427  1.00  0.00     0.004 A 
ATOM     14  C   UNL     1      -2.071   4.715  -6.070  1.00  0.00    -0.051 A 
ATOM     15  C   UNL     1      -3.121   3.902  -5.393  1.00  0.00     0.044 C 
ENDBRANCH   7   9
ENDBRANCH   1   7
BRANCH   4  16
ATOM     16  N   UNL     1       2.000   8.252 -12.614  1.00  0.00     0.066 N 
ATOM     17  O   UNL     1       2.671   7.198 -12.728  1.00  0.00    -0.258 OA
ATOM     18  O   UNL     1       2.026   9.157 -13.480  1.00  0.00    -0.258 OA
ENDBRANCH   4  16
BRANCH   5  19
ATOM     19  O   UNL     1      -1.694  10.385 -10.317  1.00  0.00    -0.504 OA
ATOM     20  H   UNL     1      -1.451  11.158  -9.780  1.00  0.00     0.293 HD
ENDBRANCH   5  19
BRANCH   6  21
ATOM     21  O   UNL     1      -0.135  10.089 -12.576  1.00  0.00    -0.500 OA
ATOM     22  H   UNL     1      -0.626  10.885 -12.322  1.00  0.00     0.294 HD
ENDBRANCH   6  21
TORSDOF 5
ENDMDL
MODEL 6
REMARK VINA RESULT:    -4.623      3.557      7.255
REMARK INTER + INTRA:          -6.429
REMARK INTER:                  -5.438
REMARK INTRA:                  -0.991
REMARK UNBOUND:                -0.725
REMARK SMILES Cc1ccc(C(=O)c2cc(O)c(O)c([N+](=O)[O-])c2)cc1
REMARK SMILES IDX 8 1 18 2 9 3 14 4 10 5 12 6 6 7 7 8 5 9 4 10 19 11 3 12
REMARK SMILES IDX 20 13 2 14 1 15 15 16 17 17 16 18 11 19 13 21
REMARK H PARENT 11 20 13 22
ROOT
ATOM      1  C   UNL     1       0.664   7.832  -9.201  1.00  0.00     0.033 A 
ATOM      2  C   UNL     1      -0.377   8.731  -9.175  1.00  0.00     0.102 A 
ATOM      3  C   UNL     1       1.466   7.650 -10.302  1.00  0.00     0.063 A 
ATOM      4  C   UNL     1      -0.629   9.492 -10.316  1.00  0.00     0.315 A 
ATOM      5  C   UNL     1       1.213   8.410 -11.444  1.00  0.00     0.165 A 
ATOM      6  C   UNL     1       0.165   9.332 -11.451  1.00  0.00     0.237 A 
ENDROOT
BRANCH   1   7
ATOM      7  C   UNL     1       0.934   7.017  -7.978  1.00  0.00     0.193 C 
ATOM      8  O   UNL     1       2.090   7.033  -7.528  1.00  0.00    -0.289 OA
BRANCH   7   9
ATOM      9  C   UNL     1      -0.097   6.229  -7.323  1.00  0.00     0.023 A 
ATOM     10  C   UNL     1      -0.362   6.417  -5.966  1.00  0.00     0.012 A 
ATOM     11  C   UNL     1      -0.822   5.285  -8.050  1.00  0.00     0.012 A 
ATOM     12  C   UNL     1      -1.351   5.661  -5.338  1.00  0.00     0.004 A 
ATOM     13  C   UNL     1      -1.812   4.529  -7.422  1.00  0.00     0.004 A 
ATOM     14  C   UNL     1      -2.077   4.716  -6.066  1.00  0.00    -0.051 A 
ATOM     15  C   UNL     1      -3.133   3.908  -5.393  1.00  0.00     0.044 C 
ENDBRANCH   7   9
ENDBRANCH   1   7
BRANCH   4  16
ATOM     16  N   UNL     1      -1.702  10.426 -10.305  1.00  0.00     0.066 N 
ATOM     17  O   UNL     1      -2.312  10.661 -11.376  1.00  0.00    -0.258 OA
ATOM     18  O   UNL     1      -2.006  10.985  -9.226  1.00  0.00    -0.258 OA
ENDBRANCH   4  16
BRANCH   5  19
ATOM     19  O   UNL     1       1.998   8.244 -12.546  1.00  0.00    -0.504 OA
ATOM     20  H   UNL     1       2.889   8.587 -12.365  1.00  0.00     0.293 HD
ENDBRANCH   5  19
BRANCH   6  21
ATOM     21  O   UNL     1      -0.072  10.071 -12.574  1.00  0.00    -0.500 OA
ATOM     22  H   UNL     1       0.614   9.888 -13.235  1.00  0.00     0.294 HD
ENDBRANCH   6  21
TORSDOF 5
ENDMDL
MODEL 7
REMARK VINA RESULT:    -4.561      2.329      4.066
REMARK INTER + INTRA:          -6.352
REMARK INTER:                  -5.330
REMARK INTRA:                  -1.022
REMARK UNBOUND:                -0.725
REMARK SMILES Cc1ccc(C(=O)c2cc(O)c(O)c([N+](=O)[O-])c2)cc1
REMARK SMILES IDX 8 1 18 2 9 3 14 4 10 5 12 6 6 7 7 8 5 9 4 10 19 11 3 12
REMARK SMILES IDX 20 13 2 14 1 15 15 16 17 17 16 18 11 19 13 21
REMARK H PARENT 11 20 13 22
ROOT
ATOM      1  C   UNL     1       1.008   7.701  -8.874  1.00  0.00     0.033 A 
ATOM      2  C   UNL     1       0.441   6.609  -8.260  1.00  0.00     0.102 A 
ATOM      3  C   UNL     1       2.016   8.440  -8.302  1.00  0.00     0.063 A 
ATOM      4  C   UNL     1       0.910   6.233  -7.001  1.00  0.00     0.315 A 
ATOM      5  C   UNL     1       2.485   8.065  -7.043  1.00  0.00     0.165 A 
ATOM      6  C   UNL     1       1.933   6.961  -6.392  1.00  0.00     0.237 A 
ENDROOT
BRANCH   1   7
ATOM      7  C   UNL     1       0.504   8.104 -10.222  1.00  0.00     0.193 C 
ATOM      8  O   UNL     1      -0.631   8.599 -10.281  1.00  0.00    -0.289 OA
BRANCH   7   9
ATOM      9  C   UNL     1       1.293   7.933 -11.432  1.00  0.00     0.023 A 
ATOM     10  C   UNL     1       1.570   9.032 -12.245  1.00  0.00     0.012 A 
ATOM     11  C   UNL     1       1.773   6.670 -11.779  1.00  0.00     0.012 A 
ATOM     12  C   UNL     1       2.327   8.868 -13.405  1.00  0.00     0.004 A 
ATOM     13  C   UNL     1       2.531   6.505 -12.939  1.00  0.00     0.004 A 
ATOM     14  C   UNL     1       2.808   7.605 -13.753  1.00  0.00    -0.051 A 
ATOM     15  C   UNL     1       3.615   7.429 -14.993  1.00  0.00     0.044 C 
ENDBRANCH   7   9
ENDBRANCH   1   7
BRANCH   4  16
ATOM     16  N   UNL     1       0.335   5.106  -6.354  1.00  0.00     0.066 N 
ATOM     17  O   UNL     1       0.064   4.088  -7.035  1.00  0.00    -0.258 OA
ATOM     18  O   UNL     1       0.115   5.162  -5.121  1.00  0.00    -0.258 OA
ENDBRANCH   4  16
BRANCH   5  19
ATOM     19  O   UNL     1       3.485   8.785  -6.460  1.00  0.00    -0.504 OA
ATOM     20  H   UNL     1       3.523   8.580  -5.512  1.00  0.00     0.293 HD
ENDBRANCH   5  19
BRANCH   6  21
ATOM     21  O   UNL     1       2.401   6.603  -5.161  1.00  0.00    -0.500 OA
ATOM     22  H   UNL     1       3.031   7.270  -4.846  1.00  0.00     0.294 HD
ENDBRANCH   6  21
TORSDOF 5
ENDMDL
MODEL 8
REMARK VINA RESULT:    -4.361      1.287      2.700
REMARK INTER + INTRA:          -6.105
REMARK INTER:                  -5.435
REMARK INTRA:                  -0.670
REMARK UNBOUND:                -0.725
REMARK SMILES Cc1ccc(C(=O)c2cc(O)c(O)c([N+](=O)[O-])c2)cc1
REMARK SMILES IDX 8 1 18 2 9 3 14 4 10 5 12 6 6 7 7 8 5 9 4 10 19 11 3 12
REMARK SMILES IDX 20 13 2 14 1 15 15 16 17 17 16 18 11 19 13 21
REMARK H PARENT 11 20 13 22
ROOT
ATOM      1  C   UNL     1      -0.324   6.221  -6.900  1.00  0.00     0.033 A 
ATOM      2  C   UNL     1      -1.430   5.597  -6.371  1.00  0.00     0.102 A 
ATOM      3  C   UNL     1       0.961   5.908  -6.524  1.00  0.00     0.063 A 
ATOM      4  C   UNL     1      -1.240   4.604  -5.411  1.00  0.00     0.315 A 
ATOM      5  C   UNL     1       1.151   4.914  -5.563  1.00  0.00     0.165 A 
ATOM      6  C   UNL     1       0.050   4.262  -5.007  1.00  0.00     0.237 A 
ENDROOT
BRANCH   1   7
ATOM      7  C   UNL     1      -0.527   7.285  -7.929  1.00  0.00     0.193 C 
ATOM      8  O   UNL     1      -1.430   8.110  -7.723  1.00  0.00    -0.289 OA
BRANCH   7   9
ATOM      9  C   UNL     1       0.287   7.374  -9.131  1.00  0.00     0.023 A 
ATOM     10  C   UNL     1      -0.181   6.837 -10.331  1.00  0.00     0.012 A 
ATOM     11  C   UNL     1       1.534   7.995  -9.084  1.00  0.00     0.012 A 
ATOM     12  C   UNL     1       0.600   6.922 -11.483  1.00  0.00     0.004 A 
ATOM     13  C   UNL     1       2.316   8.081 -10.237  1.00  0.00     0.004 A 
ATOM     14  C   UNL     1       1.848   7.544 -11.437  1.00  0.00    -0.051 A 
ATOM     15  C   UNL     1       2.683   7.634 -12.669  1.00  0.00     0.044 C 
ENDBRANCH   7   9
ENDBRANCH   1   7
BRANCH   4  16
ATOM     16  N   UNL     1      -2.374   3.950  -4.856  1.00  0.00     0.066 N 
ATOM     17  O   UNL     1      -2.546   3.986  -3.613  1.00  0.00    -0.258 OA
ATOM     18  O   UNL     1      -3.169   3.358  -5.623  1.00  0.00    -0.258 OA
ENDBRANCH   4  16
BRANCH   5  19
ATOM     19  O   UNL     1       2.417   4.591  -5.177  1.00  0.00    -0.504 OA
ATOM     20  H   UNL     1       2.499   4.689  -4.214  1.00  0.00     0.293 HD
ENDBRANCH   5  19
BRANCH   6  21
ATOM     21  O   UNL     1       0.248   3.291  -4.068  1.00  0.00    -0.500 OA
ATOM     22  H   UNL     1       0.111   2.418  -4.468  1.00  0.00     0.294 HD
ENDBRANCH   6  21
TORSDOF 5
ENDMDL
MODEL 9
REMARK VINA RESULT:    -4.338      1.947      2.535
REMARK INTER + INTRA:          -6.077
REMARK INTER:                  -5.413
REMARK INTRA:                  -0.665
REMARK UNBOUND:                -0.725
REMARK SMILES Cc1ccc(C(=O)c2cc(O)c(O)c([N+](=O)[O-])c2)cc1
REMARK SMILES IDX 8 1 18 2 9 3 14 4 10 5 12 6 6 7 7 8 5 9 4 10 19 11 3 12
REMARK SMILES IDX 20 13 2 14 1 15 15 16 17 17 16 18 11 19 13 21
REMARK H PARENT 11 20 13 22
ROOT
ATOM      1  C   UNL     1       0.496   5.281  -7.594  1.00  0.00     0.033 A 
ATOM      2  C   UNL     1       1.543   4.842  -6.817  1.00  0.00     0.102 A 
ATOM      3  C   UNL     1      -0.820   5.044  -7.275  1.00  0.00     0.063 A 
ATOM      4  C   UNL     1       1.256   4.127  -5.654  1.00  0.00     0.315 A 
ATOM      5  C   UNL     1      -1.107   4.329  -6.113  1.00  0.00     0.165 A 
ATOM      6  C   UNL     1      -0.068   3.870  -5.302  1.00  0.00     0.237 A 
ENDROOT
BRANCH   1   7
ATOM      7  C   UNL     1       0.802   6.047  -8.840  1.00  0.00     0.193 C 
ATOM      8  O   UNL     1       1.717   5.619  -9.560  1.00  0.00    -0.289 OA
BRANCH   7   9
ATOM      9  C   UNL     1       0.074   7.247  -9.216  1.00  0.00     0.023 A 
ATOM     10  C   UNL     1       0.599   8.505  -8.917  1.00  0.00     0.012 A 
ATOM     11  C   UNL     1      -1.150   7.142  -9.877  1.00  0.00     0.012 A 
ATOM     12  C   UNL     1      -0.100   9.656  -9.278  1.00  0.00     0.004 A 
ATOM     13  C   UNL     1      -1.850   8.294 -10.238  1.00  0.00     0.004 A 
ATOM     14  C   UNL     1      -1.325   9.552  -9.939  1.00  0.00    -0.051 A 
ATOM     15  C   UNL     1      -2.072  10.783 -10.324  1.00  0.00     0.044 C 
ENDBRANCH   7   9
ENDBRANCH   1   7
BRANCH   4  16
ATOM     16  N   UNL     1       2.328   3.668  -4.841  1.00  0.00     0.066 N 
ATOM     17  O   UNL     1       3.129   4.507  -4.362  1.00  0.00    -0.258 OA
ATOM     18  O   UNL     1       2.441   2.438  -4.625  1.00  0.00    -0.258 OA
ENDBRANCH   4  16
BRANCH   5  19
ATOM     19  O   UNL     1      -2.406   4.085  -5.780  1.00  0.00    -0.504 OA
ATOM     20  H   UNL     1      -2.982   4.727  -6.228  1.00  0.00     0.293 HD
ENDBRANCH   5  19
BRANCH   6  21
ATOM     21  O   UNL     1      -0.361   3.172  -4.166  1.00  0.00    -0.500 OA
ATOM     22  H   UNL     1      -0.095   3.687  -3.389  1.00  0.00     0.294 HD
ENDBRANCH   6  21
TORSDOF 5
ENDMDL
