MODEL 1
REMARK VINA RESULT:    -5.227      0.000      0.000
REMARK INTER + INTRA:          -7.230
REMARK INTER:                  -6.449
REMARK INTRA:                  -0.781
REMARK UNBOUND:                -0.781
REMARK SMILES Cc1ccc(C(=O)c2cc(O)c(O)c([N+](=O)[O-])c2)cc1
REMARK SMILES IDX 8 1 18 2 9 3 14 4 10 5 12 6 6 7 7 8 5 9 4 10 19 11 3 12
REMARK SMILES IDX 20 13 2 14 1 15 15 16 17 17 16 18 11 19 13 21
REMARK H PARENT 11 20 13 22
ROOT
ATOM      1  C   UNL     1       4.482  -0.649  -7.068  1.00  0.00     0.033 A 
ATOM      2  C   UNL     1       3.237  -1.224  -7.172  1.00  0.00     0.102 A 
ATOM      3  C   UNL     1       4.864   0.116  -5.992  1.00  0.00     0.063 A 
ATOM      4  C   UNL     1       2.321  -1.022  -6.140  1.00  0.00     0.315 A 
ATOM      5  C   UNL     1       3.948   0.319  -4.959  1.00  0.00     0.165 A 
ATOM      6  C   UNL     1       2.676  -0.251  -5.033  1.00  0.00     0.237 A 
ENDROOT
BRANCH   1   7
ATOM      7  C   UNL     1       5.464  -0.866  -8.174  1.00  0.00     0.193 C 
ATOM      8  O   UNL     1       6.639  -1.097  -7.854  1.00  0.00    -0.289 OA
BRANCH   7   9
ATOM      9  C   UNL     1       5.082  -0.813  -9.576  1.00  0.00     0.023 A 
ATOM     10  C   UNL     1       5.233   0.373 -10.295  1.00  0.00     0.012 A 
ATOM     11  C   UNL     1       4.567  -1.947 -10.202  1.00  0.00     0.012 A 
ATOM     12  C   UNL     1       4.867   0.424 -11.640  1.00  0.00     0.004 A 
ATOM     13  C   UNL     1       4.201  -1.897 -11.548  1.00  0.00     0.004 A 
ATOM     14  C   UNL     1       4.351  -0.711 -12.267  1.00  0.00    -0.051 A 
ATOM     15  C   UNL     1       3.959  -0.656 -13.704  1.00  0.00     0.044 C 
ENDBRANCH   7   9
ENDBRANCH   1   7
BRANCH   4  16
ATOM     16  N   UNL     1       1.029  -1.609  -6.233  1.00  0.00     0.066 N 
ATOM     17  O   UNL     1       0.918  -2.751  -6.742  1.00  0.00    -0.258 OA
ATOM     18  O   UNL     1       0.041  -0.970  -5.804  1.00  0.00    -0.258 OA
ENDBRANCH   4  16
BRANCH   5  19
ATOM     19  O   UNL     1       4.308   1.074  -3.884  1.00  0.00    -0.504 OA
ATOM     20  H   UNL     1       3.530   1.240  -3.327  1.00  0.00     0.293 HD
ENDBRANCH   5  19
BRANCH   6  21
ATOM     21  O   UNL     1       1.789  -0.046  -4.017  1.00  0.00    -0.500 OA
ATOM     22  H   UNL     1       2.142   0.618  -3.404  1.00  0.00     0.294 HD
ENDBRANCH   6  21
TORSDOF 5
ENDMDL
MODEL 2
REMARK VINA RESULT:    -5.226      2.022      3.529
REMARK INTER + INTRA:          -7.229
REMARK INTER:                  -6.457
REMARK INTRA:                  -0.771
REMARK UNBOUND:                -0.781
REMARK SMILES Cc1ccc(C(=O)c2cc(O)c(O)c([N+](=O)[O-])c2)cc1
REMARK SMILES IDX 8 1 18 2 9 3 14 4 10 5 12 6 6 7 7 8 5 9 4 10 19 11 3 12
REMARK SMILES IDX 20 13 2 14 1 15 15 16 17 17 16 18 11 19 13 21
REMARK H PARENT 11 20 13 22
ROOT
ATOM      1  C   UNL     1       2.899  -0.227  -7.895  1.00  0.00     0.033 A 
ATOM      2  C   UNL     1       3.777   0.413  -7.051  1.00  0.00     0.102 A 
ATOM      3  C   UNL     1       1.761  -0.857  -7.450  1.00  0.00     0.063 A 
ATOM      4  C   UNL     1       3.500   0.425  -5.685  1.00  0.00     0.315 A 
ATOM      5  C   UNL     1       1.484  -0.845  -6.083  1.00  0.00     0.165 A 
ATOM      6  C   UNL     1       2.353  -0.204  -5.200  1.00  0.00     0.237 A 
ENDROOT
BRANCH   1   7
ATOM      7  C   UNL     1       3.197  -0.240  -9.359  1.00  0.00     0.193 C 
ATOM      8  O   UNL     1       2.247  -0.049 -10.134  1.00  0.00    -0.289 OA
BRANCH   7   9
ATOM      9  C   UNL     1       4.535  -0.466  -9.881  1.00  0.00     0.023 A 
ATOM     10  C   UNL     1       4.926  -1.749 -10.267  1.00  0.00     0.012 A 
ATOM     11  C   UNL     1       5.427   0.599  -9.997  1.00  0.00     0.012 A 
ATOM     12  C   UNL     1       6.209  -1.965 -10.768  1.00  0.00     0.004 A 
ATOM     13  C   UNL     1       6.712   0.383 -10.498  1.00  0.00     0.004 A 
ATOM     14  C   UNL     1       7.103  -0.899 -10.884  1.00  0.00    -0.051 A 
ATOM     15  C   UNL     1       8.475  -1.131 -11.418  1.00  0.00     0.044 C 
ENDBRANCH   7   9
ENDBRANCH   1   7
BRANCH   4  16
ATOM     16  N   UNL     1       4.397   1.084  -4.800  1.00  0.00     0.066 N 
ATOM     17  O   UNL     1       4.941   2.151  -5.173  1.00  0.00    -0.258 OA
ATOM     18  O   UNL     1       4.618   0.579  -3.675  1.00  0.00    -0.258 OA
ENDBRANCH   4  16
BRANCH   5  19
ATOM     19  O   UNL     1       0.360  -1.464  -5.624  1.00  0.00    -0.504 OA
ATOM     20  H   UNL     1      -0.017  -2.018  -6.327  1.00  0.00     0.293 HD
ENDBRANCH   5  19
BRANCH   6  21
ATOM     21  O   UNL     1       2.071  -0.199  -3.865  1.00  0.00    -0.500 OA
ATOM     22  H   UNL     1       1.685  -1.051  -3.610  1.00  0.00     0.294 HD
ENDBRANCH   6  21
TORSDOF 5
ENDMDL
MODEL 3
REMARK VINA RESULT:    -5.202      1.765      2.029
REMARK INTER + INTRA:          -7.199
REMARK INTER:                  -6.585
REMARK INTRA:                  -0.613
REMARK UNBOUND:                -0.781
REMARK SMILES Cc1ccc(C(=O)c2cc(O)c(O)c([N+](=O)[O-])c2)cc1
REMARK SMILES IDX 8 1 18 2 9 3 14 4 10 5 12 6 6 7 7 8 5 9 4 10 19 11 3 12
REMARK SMILES IDX 20 13 2 14 1 15 15 16 17 17 16 18 11 19 13 21
REMARK H PARENT 11 20 13 22
ROOT
ATOM      1  C   UNL     1       3.642   0.909  -6.995  1.00  0.00     0.033 A 
ATOM      2  C   UNL     1       2.461   0.216  -7.128  1.00  0.00     0.102 A 
ATOM      3  C   UNL     1       4.303   1.034  -5.797  1.00  0.00     0.063 A 
ATOM      4  C   UNL     1       1.911  -0.387  -5.997  1.00  0.00     0.315 A 
ATOM      5  C   UNL     1       3.752   0.431  -4.665  1.00  0.00     0.165 A 
ATOM      6  C   UNL     1       2.556  -0.280  -4.766  1.00  0.00     0.237 A 
ENDROOT
BRANCH   1   7
ATOM      7  C   UNL     1       4.231   1.555  -8.207  1.00  0.00     0.193 C 
ATOM      8  O   UNL     1       4.058   2.776  -8.341  1.00  0.00    -0.289 OA
BRANCH   7   9
ATOM      9  C   UNL     1       4.982   0.807  -9.202  1.00  0.00     0.023 A 
ATOM     10  C   UNL     1       5.998   1.432  -9.924  1.00  0.00     0.012 A 
ATOM     11  C   UNL     1       4.685  -0.536  -9.435  1.00  0.00     0.012 A 
ATOM     12  C   UNL     1       6.718   0.714 -10.879  1.00  0.00     0.004 A 
ATOM     13  C   UNL     1       5.405  -1.255 -10.390  1.00  0.00     0.004 A 
ATOM     14  C   UNL     1       6.422  -0.630 -11.113  1.00  0.00    -0.051 A 
ATOM     15  C   UNL     1       7.191  -1.396 -12.134  1.00  0.00     0.044 C 
ENDBRANCH   7   9
ENDBRANCH   1   7
BRANCH   4  16
ATOM     16  N   UNL     1       0.691  -1.108  -6.119  1.00  0.00     0.066 N 
ATOM     17  O   UNL     1      -0.286  -0.770  -5.408  1.00  0.00    -0.258 OA
ATOM     18  O   UNL     1       0.627  -2.058  -6.933  1.00  0.00    -0.258 OA
ENDBRANCH   4  16
BRANCH   5  19
ATOM     19  O   UNL     1       4.394   0.544  -3.468  1.00  0.00    -0.504 OA
ATOM     20  H   UNL     1       5.351   0.624  -3.619  1.00  0.00     0.293 HD
ENDBRANCH   5  19
BRANCH   6  21
ATOM     21  O   UNL     1       2.028  -0.866  -3.652  1.00  0.00    -0.500 OA
ATOM     22  H   UNL     1       1.286  -1.437  -3.905  1.00  0.00     0.294 HD
ENDBRANCH   6  21
TORSDOF 5
ENDMDL
MODEL 4
REMARK VINA RESULT:    -5.186      1.663      3.115
REMARK INTER + INTRA:          -7.179
REMARK INTER:                  -6.549
REMARK INTRA:                  -0.630
REMARK UNBOUND:                -0.781
REMARK SMILES Cc1ccc(C(=O)c2cc(O)c(O)c([N+](=O)[O-])c2)cc1
REMARK SMILES IDX 8 1 18 2 9 3 14 4 10 5 12 6 6 7 7 8 5 9 4 10 19 11 3 12
REMARK SMILES IDX 20 13 2 14 1 15 15 16 17 17 16 18 11 19 13 21
REMARK H PARENT 11 20 13 22
ROOT
ATOM      1  C   UNL     1       3.219  -1.704  -6.960  1.00  0.00     0.033 A 
ATOM      2  C   UNL     1       4.090  -0.963  -6.195  1.00  0.00     0.102 A 
ATOM      3  C   UNL     1       1.859  -1.697  -6.760  1.00  0.00     0.063 A 
ATOM      4  C   UNL     1       3.570  -0.169  -5.173  1.00  0.00     0.315 A 
ATOM      5  C   UNL     1       1.339  -0.904  -5.737  1.00  0.00     0.165 A 
ATOM      6  C   UNL     1       2.195  -0.139  -4.943  1.00  0.00     0.237 A 
ENDROOT
BRANCH   1   7
ATOM      7  C   UNL     1       3.776  -2.554  -8.055  1.00  0.00     0.193 C 
ATOM      8  O   UNL     1       3.904  -3.766  -7.825  1.00  0.00    -0.289 OA
BRANCH   7   9
ATOM      9  C   UNL     1       4.160  -2.008  -9.347  1.00  0.00     0.023 A 
ATOM     10  C   UNL     1       4.120  -2.815 -10.485  1.00  0.00     0.012 A 
ATOM     11  C   UNL     1       4.567  -0.678  -9.450  1.00  0.00     0.012 A 
ATOM     12  C   UNL     1       4.488  -2.291 -11.724  1.00  0.00     0.004 A 
ATOM     13  C   UNL     1       4.935  -0.154 -10.690  1.00  0.00     0.004 A 
ATOM     14  C   UNL     1       4.895  -0.961 -11.827  1.00  0.00    -0.051 A 
ATOM     15  C   UNL     1       5.290  -0.402 -13.152  1.00  0.00     0.044 C 
ENDBRANCH   7   9
ENDBRANCH   1   7
BRANCH   4  16
ATOM     16  N   UNL     1       4.458   0.603  -4.374  1.00  0.00     0.066 N 
ATOM     17  O   UNL     1       5.230   1.415  -4.938  1.00  0.00    -0.258 OA
ATOM     18  O   UNL     1       4.442   0.450  -3.130  1.00  0.00    -0.258 OA
ENDBRANCH   4  16
BRANCH   5  19
ATOM     19  O   UNL     1      -0.007  -0.885  -5.525  1.00  0.00    -0.504 OA
ATOM     20  H   UNL     1      -0.276  -1.698  -5.068  1.00  0.00     0.293 HD
ENDBRANCH   5  19
BRANCH   6  21
ATOM     21  O   UNL     1       1.674   0.633  -3.946  1.00  0.00    -0.500 OA
ATOM     22  H   UNL     1       2.282   0.644  -3.191  1.00  0.00     0.294 HD
ENDBRANCH   6  21
TORSDOF 5
ENDMDL
MODEL 5
REMARK VINA RESULT:    -5.092      3.539      4.411
REMARK INTER + INTRA:          -7.063
REMARK INTER:                  -6.066
REMARK INTRA:                  -0.997
REMARK UNBOUND:                -0.781
REMARK SMILES Cc1ccc(C(=O)c2cc(O)c(O)c([N+](=O)[O-])c2)cc1
REMARK SMILES IDX 8 1 18 2 9 3 14 4 10 5 12 6 6 7 7 8 5 9 4 10 19 11 3 12
REMARK SMILES IDX 20 13 2 14 1 15 15 16 17 17 16 18 11 19 13 21
REMARK H PARENT 11 20 13 22
ROOT
ATOM      1  C   UNL     1       5.408   0.234 -10.231  1.00  0.00     0.033 A 
ATOM      2  C   UNL     1       4.671  -0.358  -9.231  1.00  0.00     0.102 A 
ATOM      3  C   UNL     1       5.782   1.556 -10.200  1.00  0.00     0.063 A 
ATOM      4  C   UNL     1       4.286   0.418  -8.138  1.00  0.00     0.315 A 
ATOM      5  C   UNL     1       5.396   2.333  -9.106  1.00  0.00     0.165 A 
ATOM      6  C   UNL     1       4.648   1.763  -8.075  1.00  0.00     0.237 A 
ENDROOT
BRANCH   1   7
ATOM      7  C   UNL     1       5.820  -0.597 -11.402  1.00  0.00     0.193 C 
ATOM      8  O   UNL     1       4.932  -0.940 -12.197  1.00  0.00    -0.289 OA
BRANCH   7   9
ATOM      9  C   UNL     1       7.199  -1.002 -11.624  1.00  0.00     0.023 A 
ATOM     10  C   UNL     1       7.804  -0.768 -12.860  1.00  0.00     0.012 A 
ATOM     11  C   UNL     1       7.918  -1.623 -10.603  1.00  0.00     0.012 A 
ATOM     12  C   UNL     1       9.127  -1.156 -13.072  1.00  0.00     0.004 A 
ATOM     13  C   UNL     1       9.241  -2.010 -10.815  1.00  0.00     0.004 A 
ATOM     14  C   UNL     1       9.846  -1.777 -12.050  1.00  0.00    -0.051 A 
ATOM     15  C   UNL     1      11.259  -2.192 -12.279  1.00  0.00     0.044 C 
ENDBRANCH   7   9
ENDBRANCH   1   7
BRANCH   4  16
ATOM     16  N   UNL     1       3.523  -0.180  -7.097  1.00  0.00     0.066 N 
ATOM     17  O   UNL     1       2.534   0.441  -6.638  1.00  0.00    -0.258 OA
ATOM     18  O   UNL     1       3.861  -1.308  -6.670  1.00  0.00    -0.258 OA
ENDBRANCH   4  16
BRANCH   5  19
ATOM     19  O   UNL     1       5.758   3.645  -9.058  1.00  0.00    -0.504 OA
ATOM     20  H   UNL     1       5.659   4.043  -9.939  1.00  0.00     0.293 HD
ENDBRANCH   5  19
BRANCH   6  21
ATOM     21  O   UNL     1       4.278   2.533  -7.011  1.00  0.00    -0.500 OA
ATOM     22  H   UNL     1       4.366   3.471  -7.240  1.00  0.00     0.294 HD
ENDBRANCH   6  21
TORSDOF 5
ENDMDL
MODEL 6
REMARK VINA RESULT:    -5.017      2.354      4.102
REMARK INTER + INTRA:          -6.971
REMARK INTER:                  -5.985
REMARK INTRA:                  -0.987
REMARK UNBOUND:                -0.781
REMARK SMILES Cc1ccc(C(=O)c2cc(O)c(O)c([N+](=O)[O-])c2)cc1
REMARK SMILES IDX 8 1 18 2 9 3 14 4 10 5 12 6 6 7 7 8 5 9 4 10 19 11 3 12
REMARK SMILES IDX 20 13 2 14 1 15 15 16 17 17 16 18 11 19 13 21
REMARK H PARENT 11 20 13 22
ROOT
ATOM      1  C   UNL     1       4.774  -1.593 -10.424  1.00  0.00     0.033 A 
ATOM      2  C   UNL     1       4.469  -0.766  -9.367  1.00  0.00     0.102 A 
ATOM      3  C   UNL     1       4.427  -2.922 -10.455  1.00  0.00     0.063 A 
ATOM      4  C   UNL     1       3.776  -1.300  -8.281  1.00  0.00     0.315 A 
ATOM      5  C   UNL     1       3.735  -3.457  -9.368  1.00  0.00     0.165 A 
ATOM      6  C   UNL     1       3.409  -2.646  -8.281  1.00  0.00     0.237 A 
ENDROOT
BRANCH   1   7
ATOM      7  C   UNL     1       5.516  -1.020 -11.588  1.00  0.00     0.193 C 
ATOM      8  O   UNL     1       6.728  -0.803 -11.439  1.00  0.00    -0.289 OA
BRANCH   7   9
ATOM      9  C   UNL     1       4.867  -0.721 -12.855  1.00  0.00     0.023 A 
ATOM     10  C   UNL     1       5.427  -1.175 -14.049  1.00  0.00     0.012 A 
ATOM     11  C   UNL     1       3.686   0.019 -12.876  1.00  0.00     0.012 A 
ATOM     12  C   UNL     1       4.805  -0.888 -15.264  1.00  0.00     0.004 A 
ATOM     13  C   UNL     1       3.063   0.306 -14.091  1.00  0.00     0.004 A 
ATOM     14  C   UNL     1       3.623  -0.148 -15.286  1.00  0.00    -0.051 A 
ATOM     15  C   UNL     1       2.959   0.160 -16.585  1.00  0.00     0.044 C 
ENDBRANCH   7   9
ENDBRANCH   1   7
BRANCH   4  16
ATOM     16  N   UNL     1       3.454  -0.458  -7.182  1.00  0.00     0.066 N 
ATOM     17  O   UNL     1       3.434  -0.949  -6.027  1.00  0.00    -0.258 OA
ATOM     18  O   UNL     1       3.198   0.750  -7.398  1.00  0.00    -0.258 OA
ENDBRANCH   4  16
BRANCH   5  19
ATOM     19  O   UNL     1       3.383  -4.773  -9.382  1.00  0.00    -0.504 OA
ATOM     20  H   UNL     1       4.035  -5.279  -9.895  1.00  0.00     0.293 HD
ENDBRANCH   5  19
BRANCH   6  21
ATOM     21  O   UNL     1       2.732  -3.180  -7.224  1.00  0.00    -0.500 OA
ATOM     22  H   UNL     1       2.147  -3.889  -7.536  1.00  0.00     0.294 HD
ENDBRANCH   6  21
TORSDOF 5
ENDMDL
MODEL 7
REMARK VINA RESULT:    -4.952      3.613      7.162
REMARK INTER + INTRA:          -6.891
REMARK INTER:                  -5.963
REMARK INTRA:                  -0.927
REMARK UNBOUND:                -0.781
REMARK SMILES Cc1ccc(C(=O)c2cc(O)c(O)c([N+](=O)[O-])c2)cc1
REMARK SMILES IDX 8 1 18 2 9 3 14 4 10 5 12 6 6 7 7 8 5 9 4 10 19 11 3 12
REMARK SMILES IDX 20 13 2 14 1 15 15 16 17 17 16 18 11 19 13 21
REMARK H PARENT 11 20 13 22
ROOT
ATOM      1  C   UNL     1       4.739  -1.468 -10.595  1.00  0.00     0.033 A 
ATOM      2  C   UNL     1       6.102  -1.363 -10.754  1.00  0.00     0.102 A 
ATOM      3  C   UNL     1       3.851  -1.290 -11.629  1.00  0.00     0.063 A 
ATOM      4  C   UNL     1       6.604  -1.066 -12.021  1.00  0.00     0.315 A 
ATOM      5  C   UNL     1       4.354  -0.992 -12.896  1.00  0.00     0.165 A 
ATOM      6  C   UNL     1       5.731  -0.881 -13.092  1.00  0.00     0.237 A 
ENDROOT
BRANCH   1   7
ATOM      7  C   UNL     1       4.200  -1.786  -9.238  1.00  0.00     0.193 C 
ATOM      8  O   UNL     1       3.583  -2.854  -9.107  1.00  0.00    -0.289 OA
BRANCH   7   9
ATOM      9  C   UNL     1       4.378  -0.898  -8.101  1.00  0.00     0.023 A 
ATOM     10  C   UNL     1       4.641  -1.427  -6.837  1.00  0.00     0.012 A 
ATOM     11  C   UNL     1       4.287   0.483  -8.273  1.00  0.00     0.012 A 
ATOM     12  C   UNL     1       4.812  -0.576  -5.746  1.00  0.00     0.004 A 
ATOM     13  C   UNL     1       4.459   1.336  -7.181  1.00  0.00     0.004 A 
ATOM     14  C   UNL     1       4.721   0.806  -5.918  1.00  0.00    -0.051 A 
ATOM     15  C   UNL     1       4.903   1.716  -4.751  1.00  0.00     0.044 C 
ENDBRANCH   7   9
ENDBRANCH   1   7
BRANCH   4  16
ATOM     16  N   UNL     1       8.010  -0.956 -12.201  1.00  0.00     0.066 N 
ATOM     17  O   UNL     1       8.513  -1.324 -13.290  1.00  0.00    -0.258 OA
ATOM     18  O   UNL     1       8.706  -0.494 -11.267  1.00  0.00    -0.258 OA
ENDBRANCH   4  16
BRANCH   5  19
ATOM     19  O   UNL     1       3.489  -0.814 -13.934  1.00  0.00    -0.504 OA
ATOM     20  H   UNL     1       3.011  -1.642 -14.105  1.00  0.00     0.293 HD
ENDBRANCH   5  19
BRANCH   6  21
ATOM     21  O   UNL     1       6.211  -0.590 -14.336  1.00  0.00    -0.500 OA
ATOM     22  H   UNL     1       6.795   0.183 -14.287  1.00  0.00     0.294 HD
ENDBRANCH   6  21
TORSDOF 5
ENDMDL
MODEL 8
REMARK VINA RESULT:    -4.870      3.285      4.570
REMARK INTER + INTRA:          -6.790
REMARK INTER:                  -5.919
REMARK INTRA:                  -0.870
REMARK UNBOUND:                -0.781
REMARK SMILES Cc1ccc(C(=O)c2cc(O)c(O)c([N+](=O)[O-])c2)cc1
REMARK SMILES IDX 8 1 18 2 9 3 14 4 10 5 12 6 6 7 7 8 5 9 4 10 19 11 3 12
REMARK SMILES IDX 20 13 2 14 1 15 15 16 17 17 16 18 11 19 13 21
REMARK H PARENT 11 20 13 22
ROOT
ATOM      1  C   UNL     1       4.882  -1.373 -10.142  1.00  0.00     0.033 A 
ATOM      2  C   UNL     1       4.540  -0.686  -9.000  1.00  0.00     0.102 A 
ATOM      3  C   UNL     1       4.536  -2.686 -10.356  1.00  0.00     0.063 A 
ATOM      4  C   UNL     1       3.808  -1.351  -8.017  1.00  0.00     0.315 A 
ATOM      5  C   UNL     1       3.804  -3.351  -9.372  1.00  0.00     0.165 A 
ATOM      6  C   UNL     1       3.440  -2.683  -8.202  1.00  0.00     0.237 A 
ENDROOT
BRANCH   1   7
ATOM      7  C   UNL     1       5.667  -0.661 -11.196  1.00  0.00     0.193 C 
ATOM      8  O   UNL     1       5.095   0.253 -11.811  1.00  0.00    -0.289 OA
BRANCH   7   9
ATOM      9  C   UNL     1       7.044  -1.005 -11.508  1.00  0.00     0.023 A 
ATOM     10  C   UNL     1       7.886  -1.492 -10.508  1.00  0.00     0.012 A 
ATOM     11  C   UNL     1       7.525  -0.848 -12.808  1.00  0.00     0.012 A 
ATOM     12  C   UNL     1       9.207  -1.822 -10.808  1.00  0.00     0.004 A 
ATOM     13  C   UNL     1       8.847  -1.178 -13.109  1.00  0.00     0.004 A 
ATOM     14  C   UNL     1       9.689  -1.665 -12.108  1.00  0.00    -0.051 A 
ATOM     15  C   UNL     1      11.102  -2.017 -12.428  1.00  0.00     0.044 C 
ENDBRANCH   7   9
ENDBRANCH   1   7
BRANCH   4  16
ATOM     16  N   UNL     1       3.446  -0.654  -6.831  1.00  0.00     0.066 N 
ATOM     17  O   UNL     1       2.985   0.509  -6.928  1.00  0.00    -0.258 OA
ATOM     18  O   UNL     1       3.598  -1.222  -5.725  1.00  0.00    -0.258 OA
ENDBRANCH   4  16
BRANCH   5  19
ATOM     19  O   UNL     1       3.451  -4.653  -9.566  1.00  0.00    -0.504 OA
ATOM     20  H   UNL     1       2.610  -4.693 -10.051  1.00  0.00     0.293 HD
ENDBRANCH   5  19
BRANCH   6  21
ATOM     21  O   UNL     1       2.724  -3.344  -7.247  1.00  0.00    -0.500 OA
ATOM     22  H   UNL     1       2.739  -4.297  -7.429  1.00  0.00     0.294 HD
ENDBRANCH   6  21
TORSDOF 5
ENDMDL
MODEL 9
REMARK VINA RESULT:    -4.845      3.738      6.792
REMARK INTER + INTRA:          -6.759
REMARK INTER:                  -5.797
REMARK INTRA:                  -0.962
REMARK UNBOUND:                -0.781
REMARK SMILES Cc1ccc(C(=O)c2cc(O)c(O)c([N+](=O)[O-])c2)cc1
REMARK SMILES IDX 8 1 18 2 9 3 14 4 10 5 12 6 6 7 7 8 5 9 4 10 19 11 3 12
REMARK SMILES IDX 20 13 2 14 1 15 15 16 17 17 16 18 11 19 13 21
REMARK H PARENT 11 20 13 22
ROOT
ATOM      1  C   UNL     1       4.813  -1.406 -10.560  1.00  0.00     0.033 A 
ATOM      2  C   UNL     1       3.994  -1.186 -11.643  1.00  0.00     0.102 A 
ATOM      3  C   UNL     1       6.185  -1.382 -10.644  1.00  0.00     0.063 A 
ATOM      4  C   UNL     1       4.581  -0.927 -12.881  1.00  0.00     0.315 A 
ATOM      5  C   UNL     1       6.772  -1.123 -11.883  1.00  0.00     0.165 A 
ATOM      6  C   UNL     1       5.970  -0.895 -13.002  1.00  0.00     0.237 A 
ENDROOT
BRANCH   1   7
ATOM      7  C   UNL     1       4.184  -1.684  -9.234  1.00  0.00     0.193 C 
ATOM      8  O   UNL     1       3.479  -2.700  -9.140  1.00  0.00    -0.289 OA
BRANCH   7   9
ATOM      9  C   UNL     1       4.374  -0.816  -8.083  1.00  0.00     0.023 A 
ATOM     10  C   UNL     1       4.637  -1.367  -6.829  1.00  0.00     0.012 A 
ATOM     11  C   UNL     1       4.295   0.568  -8.233  1.00  0.00     0.012 A 
ATOM     12  C   UNL     1       4.820  -0.534  -5.725  1.00  0.00     0.004 A 
ATOM     13  C   UNL     1       4.478   1.402  -7.129  1.00  0.00     0.004 A 
ATOM     14  C   UNL     1       4.741   0.851  -5.875  1.00  0.00    -0.051 A 
ATOM     15  C   UNL     1       4.935   1.741  -4.695  1.00  0.00     0.044 C 
ENDBRANCH   7   9
ENDBRANCH   1   7
BRANCH   4  16
ATOM     16  N   UNL     1       3.747  -0.697 -14.010  1.00  0.00     0.066 N 
ATOM     17  O   UNL     1       4.132  -1.090 -15.138  1.00  0.00    -0.258 OA
ATOM     18  O   UNL     1       2.653  -0.110 -13.846  1.00  0.00    -0.258 OA
ENDBRANCH   4  16
BRANCH   5  19
ATOM     19  O   UNL     1       8.131  -1.094 -11.986  1.00  0.00    -0.504 OA
ATOM     20  H   UNL     1       8.521  -1.652 -11.293  1.00  0.00     0.293 HD
ENDBRANCH   5  19
BRANCH   6  21
ATOM     21  O   UNL     1       6.556  -0.642 -14.208  1.00  0.00    -0.500 OA
ATOM     22  H   UNL     1       7.519  -0.590 -14.098  1.00  0.00     0.294 HD
ENDBRANCH   6  21
TORSDOF 5
ENDMDL
