MODEL 1
REMARK VINA RESULT:    -6.749      0.000      0.000
REMARK INTER + INTRA:          -8.559
REMARK INTER:                  -7.933
REMARK INTRA:                  -0.626
REMARK UNBOUND:                -0.626
REMARK SMILES O=C(O)c1cc(-c2ccc(F)cc2F)ccc1O
REMARK SMILES IDX 6 1 5 2 15 3 4 4 17 5 16 6 7 7 13 8 12 9 8 10 10 11 9 12
REMARK SMILES IDX 14 13 11 14 2 15 1 16 3 17 18 19
REMARK H PARENT 3 18 18 20
ROOT
ATOM      1  C   UNL     1       5.073   1.712   6.185  1.00  0.00    -0.014 A 
ATOM      2  C   UNL     1       5.389   0.709   5.269  1.00  0.00     0.028 A 
ATOM      3  C   UNL     1       3.912   2.468   6.018  1.00  0.00     0.013 A 
ATOM      4  C   UNL     1       4.546   0.462   4.185  1.00  0.00     0.102 A 
ATOM      5  C   UNL     1       3.385   1.218   4.019  1.00  0.00     0.130 A 
ATOM      6  C   UNL     1       3.068   2.221   4.936  1.00  0.00     0.048 A 
ENDROOT
BRANCH   1   7
ATOM      7  C   UNL     1       5.948   1.970   7.308  1.00  0.00     0.018 A 
ATOM      8  C   UNL     1       6.453   0.909   8.060  1.00  0.00     0.133 A 
ATOM      9  C   UNL     1       7.296   1.162   9.143  1.00  0.00     0.079 A 
ATOM     10  C   UNL     1       6.287   3.282   7.636  1.00  0.00     0.015 A 
ATOM     11  C   UNL     1       7.635   2.474   9.471  1.00  0.00     0.126 A 
ATOM     12  C   UNL     1       7.131   3.534   8.717  1.00  0.00     0.040 A 
ATOM     13  F   UNL     1       6.134  -0.358   7.760  1.00  0.00    -0.206 F 
ATOM     14  F   UNL     1       8.444   2.718  10.510  1.00  0.00    -0.207 F 
ENDBRANCH   1   7
BRANCH   4  15
ATOM     15  C   UNL     1       4.894  -0.590   3.240  1.00  0.00     0.339 C 
ATOM     16  O   UNL     1       4.846  -0.490   2.012  1.00  0.00    -0.246 OA
BRANCH  15  17
ATOM     17  O   UNL     1       5.293  -1.733   3.861  1.00  0.00    -0.478 OA
ATOM     18  H   UNL     1       4.608  -2.073   4.475  1.00  0.00     0.297 HD
ENDBRANCH  15  17
ENDBRANCH   4  15
BRANCH   5  19
ATOM     19  O   UNL     1       2.547   0.992   2.968  1.00  0.00    -0.507 OA
ATOM     20  H   UNL     1       1.628   1.115   3.262  1.00  0.00     0.293 HD
ENDBRANCH   5  19
TORSDOF 4
ENDMDL
MODEL 2
REMARK VINA RESULT:    -6.734      1.118      1.601
REMARK INTER + INTRA:          -8.541
REMARK INTER:                  -7.913
REMARK INTRA:                  -0.628
REMARK UNBOUND:                -0.626
REMARK SMILES O=C(O)c1cc(-c2ccc(F)cc2F)ccc1O
REMARK SMILES IDX 6 1 5 2 15 3 4 4 17 5 16 6 7 7 13 8 12 9 8 10 10 11 9 12
REMARK SMILES IDX 14 13 11 14 2 15 1 16 3 17 18 19
REMARK H PARENT 3 18 18 20
ROOT
ATOM      1  C   UNL     1       5.078   1.719   6.165  1.00  0.00    -0.014 A 
ATOM      2  C   UNL     1       5.395   0.715   5.251  1.00  0.00     0.028 A 
ATOM      3  C   UNL     1       3.914   2.470   6.000  1.00  0.00     0.013 A 
ATOM      4  C   UNL     1       4.549   0.461   4.171  1.00  0.00     0.102 A 
ATOM      5  C   UNL     1       3.385   1.213   4.007  1.00  0.00     0.130 A 
ATOM      6  C   UNL     1       3.067   2.217   4.922  1.00  0.00     0.048 A 
ENDROOT
BRANCH   1   7
ATOM      7  C   UNL     1       5.956   1.983   7.285  1.00  0.00     0.018 A 
ATOM      8  C   UNL     1       6.307   3.295   7.605  1.00  0.00     0.133 A 
ATOM      9  C   UNL     1       7.154   3.546   8.685  1.00  0.00     0.079 A 
ATOM     10  C   UNL     1       6.450   0.923   8.045  1.00  0.00     0.015 A 
ATOM     11  C   UNL     1       7.649   2.486   9.444  1.00  0.00     0.126 A 
ATOM     12  C   UNL     1       7.296   1.175   9.124  1.00  0.00     0.040 A 
ATOM     13  F   UNL     1       5.844   4.325   6.883  1.00  0.00    -0.206 F 
ATOM     14  F   UNL     1       8.462   2.725  10.481  1.00  0.00    -0.207 F 
ENDBRANCH   1   7
BRANCH   4  15
ATOM     15  C   UNL     1       4.898  -0.592   3.228  1.00  0.00     0.339 C 
ATOM     16  O   UNL     1       4.844  -0.496   2.000  1.00  0.00    -0.246 OA
BRANCH  15  17
ATOM     17  O   UNL     1       5.304  -1.731   3.851  1.00  0.00    -0.478 OA
ATOM     18  H   UNL     1       6.144  -2.071   3.476  1.00  0.00     0.297 HD
ENDBRANCH  15  17
ENDBRANCH   4  15
BRANCH   5  19
ATOM     19  O   UNL     1       2.544   0.980   2.959  1.00  0.00    -0.507 OA
ATOM     20  H   UNL     1       3.051   1.026   2.129  1.00  0.00     0.293 HD
ENDBRANCH   5  19
TORSDOF 4
ENDMDL
MODEL 3
REMARK VINA RESULT:    -6.732      1.775      3.262
REMARK INTER + INTRA:          -8.538
REMARK INTER:                  -7.852
REMARK INTRA:                  -0.687
REMARK UNBOUND:                -0.626
REMARK SMILES O=C(O)c1cc(-c2ccc(F)cc2F)ccc1O
REMARK SMILES IDX 6 1 5 2 15 3 4 4 17 5 16 6 7 7 13 8 12 9 8 10 10 11 9 12
REMARK SMILES IDX 14 13 11 14 2 15 1 16 3 17 18 19
REMARK H PARENT 3 18 18 20
ROOT
ATOM      1  C   UNL     1       5.005   1.884   6.169  1.00  0.00    -0.014 A 
ATOM      2  C   UNL     1       3.849   2.664   6.139  1.00  0.00     0.028 A 
ATOM      3  C   UNL     1       5.235   0.940   5.168  1.00  0.00     0.013 A 
ATOM      4  C   UNL     1       2.922   2.499   5.110  1.00  0.00     0.102 A 
ATOM      5  C   UNL     1       3.152   1.554   4.110  1.00  0.00     0.130 A 
ATOM      6  C   UNL     1       4.309   0.774   4.139  1.00  0.00     0.048 A 
ENDROOT
BRANCH   1   7
ATOM      7  C   UNL     1       5.966   2.054   7.237  1.00  0.00     0.018 A 
ATOM      8  C   UNL     1       6.400   3.332   7.593  1.00  0.00     0.133 A 
ATOM      9  C   UNL     1       7.327   3.491   8.623  1.00  0.00     0.079 A 
ATOM     10  C   UNL     1       6.458   0.937   7.912  1.00  0.00     0.015 A 
ATOM     11  C   UNL     1       7.819   2.374   9.297  1.00  0.00     0.126 A 
ATOM     12  C   UNL     1       7.384   1.097   8.942  1.00  0.00     0.040 A 
ATOM     13  F   UNL     1       5.938   4.416   6.952  1.00  0.00    -0.206 F 
ATOM     14  F   UNL     1       8.709   2.526  10.286  1.00  0.00    -0.207 F 
ENDBRANCH   1   7
BRANCH   4  15
ATOM     15  C   UNL     1       1.721   3.322   5.097  1.00  0.00     0.339 C 
ATOM     16  O   UNL     1       0.588   2.927   4.814  1.00  0.00    -0.246 OA
BRANCH  15  17
ATOM     17  O   UNL     1       1.975   4.615   5.439  1.00  0.00    -0.478 OA
ATOM     18  H   UNL     1       2.835   4.924   5.083  1.00  0.00     0.297 HD
ENDBRANCH  15  17
ENDBRANCH   4  15
BRANCH   5  19
ATOM     19  O   UNL     1       2.259   1.377   3.095  1.00  0.00    -0.507 OA
ATOM     20  H   UNL     1       1.542   2.029   3.186  1.00  0.00     0.293 HD
ENDBRANCH   5  19
TORSDOF 4
ENDMDL
MODEL 4
REMARK VINA RESULT:    -6.713      1.397      2.836
REMARK INTER + INTRA:          -8.517
REMARK INTER:                  -7.848
REMARK INTRA:                  -0.669
REMARK UNBOUND:                -0.626
REMARK SMILES O=C(O)c1cc(-c2ccc(F)cc2F)ccc1O
REMARK SMILES IDX 6 1 5 2 15 3 4 4 17 5 16 6 7 7 13 8 12 9 8 10 10 11 9 12
REMARK SMILES IDX 14 13 11 14 2 15 1 16 3 17 18 19
REMARK H PARENT 3 18 18 20
ROOT
ATOM      1  C   UNL     1       4.987   1.858   6.174  1.00  0.00    -0.014 A 
ATOM      2  C   UNL     1       3.837   2.645   6.142  1.00  0.00     0.028 A 
ATOM      3  C   UNL     1       5.213   0.911   5.175  1.00  0.00     0.013 A 
ATOM      4  C   UNL     1       2.911   2.486   5.111  1.00  0.00     0.102 A 
ATOM      5  C   UNL     1       3.136   1.539   4.112  1.00  0.00     0.130 A 
ATOM      6  C   UNL     1       4.288   0.752   4.143  1.00  0.00     0.048 A 
ENDROOT
BRANCH   1   7
ATOM      7  C   UNL     1       5.948   2.022   7.244  1.00  0.00     0.018 A 
ATOM      8  C   UNL     1       6.437   0.905   7.923  1.00  0.00     0.133 A 
ATOM      9  C   UNL     1       7.362   1.067   8.955  1.00  0.00     0.079 A 
ATOM     10  C   UNL     1       6.385   3.298   7.595  1.00  0.00     0.015 A 
ATOM     11  C   UNL     1       7.799   2.344   9.306  1.00  0.00     0.126 A 
ATOM     12  C   UNL     1       7.310   3.460   8.626  1.00  0.00     0.040 A 
ATOM     13  F   UNL     1       6.025  -0.329   7.600  1.00  0.00    -0.206 F 
ATOM     14  F   UNL     1       8.687   2.500  10.296  1.00  0.00    -0.207 F 
ENDBRANCH   1   7
BRANCH   4  15
ATOM     15  C   UNL     1       1.715   3.318   5.096  1.00  0.00     0.339 C 
ATOM     16  O   UNL     1       0.580   2.930   4.812  1.00  0.00    -0.246 OA
BRANCH  15  17
ATOM     17  O   UNL     1       1.978   4.609   5.437  1.00  0.00    -0.478 OA
ATOM     18  H   UNL     1       1.341   5.231   5.027  1.00  0.00     0.297 HD
ENDBRANCH  15  17
ENDBRANCH   4  15
BRANCH   5  19
ATOM     19  O   UNL     1       2.244   1.369   3.095  1.00  0.00    -0.507 OA
ATOM     20  H   UNL     1       1.466   1.930   3.258  1.00  0.00     0.293 HD
ENDBRANCH   5  19
TORSDOF 4
ENDMDL
MODEL 5
REMARK VINA RESULT:    -4.724      4.513      6.829
REMARK INTER + INTRA:          -6.179
REMARK INTER:                  -5.103
REMARK INTRA:                  -1.076
REMARK UNBOUND:                -0.626
REMARK SMILES O=C(O)c1cc(-c2ccc(F)cc2F)ccc1O
REMARK SMILES IDX 6 1 5 2 15 3 4 4 17 5 16 6 7 7 13 8 12 9 8 10 10 11 9 12
REMARK SMILES IDX 14 13 11 14 2 15 1 16 3 17 18 19
REMARK H PARENT 3 18 18 20
ROOT
ATOM      1  C   UNL     1       6.350   2.320   8.006  1.00  0.00    -0.014 A 
ATOM      2  C   UNL     1       5.978   2.711   9.291  1.00  0.00     0.028 A 
ATOM      3  C   UNL     1       7.688   2.044   7.720  1.00  0.00     0.013 A 
ATOM      4  C   UNL     1       6.942   2.827  10.293  1.00  0.00     0.102 A 
ATOM      5  C   UNL     1       8.280   2.551  10.007  1.00  0.00     0.130 A 
ATOM      6  C   UNL     1       8.652   2.160   8.721  1.00  0.00     0.048 A 
ENDROOT
BRANCH   1   7
ATOM      7  C   UNL     1       5.350   2.201   6.966  1.00  0.00     0.018 A 
ATOM      8  C   UNL     1       4.973   3.322   6.226  1.00  0.00     0.133 A 
ATOM      9  C   UNL     1       4.009   3.203   5.225  1.00  0.00     0.079 A 
ATOM     10  C   UNL     1       4.765   0.962   6.705  1.00  0.00     0.015 A 
ATOM     11  C   UNL     1       3.422   1.964   4.964  1.00  0.00     0.126 A 
ATOM     12  C   UNL     1       3.801   0.844   5.704  1.00  0.00     0.040 A 
ATOM     13  F   UNL     1       5.524   4.520   6.466  1.00  0.00    -0.206 F 
ATOM     14  F   UNL     1       2.497   1.849   4.004  1.00  0.00    -0.207 F 
ENDBRANCH   1   7
BRANCH   4  15
ATOM     15  C   UNL     1       6.533   3.236  11.629  1.00  0.00     0.339 C 
ATOM     16  O   UNL     1       7.292   3.621  12.521  1.00  0.00    -0.246 OA
BRANCH  15  17
ATOM     17  O   UNL     1       5.186   3.152  11.807  1.00  0.00    -0.478 OA
ATOM     18  H   UNL     1       4.713   3.040  10.956  1.00  0.00     0.297 HD
ENDBRANCH  15  17
ENDBRANCH   4  15
BRANCH   5  19
ATOM     19  O   UNL     1       9.237   2.657  10.971  1.00  0.00    -0.507 OA
ATOM     20  H   UNL     1      10.109   2.490  10.573  1.00  0.00     0.293 HD
ENDBRANCH   5  19
TORSDOF 4
ENDMDL
MODEL 6
REMARK VINA RESULT:    -4.722      3.908      6.181
REMARK INTER + INTRA:          -6.176
REMARK INTER:                  -5.099
REMARK INTRA:                  -1.077
REMARK UNBOUND:                -0.626
REMARK SMILES O=C(O)c1cc(-c2ccc(F)cc2F)ccc1O
REMARK SMILES IDX 6 1 5 2 15 3 4 4 17 5 16 6 7 7 13 8 12 9 8 10 10 11 9 12
REMARK SMILES IDX 14 13 11 14 2 15 1 16 3 17 18 19
REMARK H PARENT 3 18 18 20
ROOT
ATOM      1  C   UNL     1       6.649   1.949   7.824  1.00  0.00    -0.014 A 
ATOM      2  C   UNL     1       8.032   1.790   7.747  1.00  0.00     0.028 A 
ATOM      3  C   UNL     1       6.064   2.404   9.006  1.00  0.00     0.013 A 
ATOM      4  C   UNL     1       8.832   2.085   8.852  1.00  0.00     0.102 A 
ATOM      5  C   UNL     1       8.247   2.540  10.034  1.00  0.00     0.130 A 
ATOM      6  C   UNL     1       6.862   2.699  10.111  1.00  0.00     0.048 A 
ENDROOT
BRANCH   1   7
ATOM      7  C   UNL     1       5.820   1.641   6.679  1.00  0.00     0.018 A 
ATOM      8  C   UNL     1       5.389   0.333   6.457  1.00  0.00     0.133 A 
ATOM      9  C   UNL     1       4.590   0.041   5.352  1.00  0.00     0.079 A 
ATOM     10  C   UNL     1       5.450   2.656   5.797  1.00  0.00     0.015 A 
ATOM     11  C   UNL     1       4.221   1.055   4.470  1.00  0.00     0.126 A 
ATOM     12  C   UNL     1       4.651   2.364   4.693  1.00  0.00     0.040 A 
ATOM     13  F   UNL     1       5.738  -0.655   7.294  1.00  0.00    -0.206 F 
ATOM     14  F   UNL     1       3.453   0.776   3.408  1.00  0.00    -0.207 F 
ENDBRANCH   1   7
BRANCH   4  15
ATOM     15  C   UNL     1      10.274   1.913   8.751  1.00  0.00     0.339 C 
ATOM     16  O   UNL     1      11.065   1.949   9.697  1.00  0.00    -0.246 OA
BRANCH  15  17
ATOM     17  O   UNL     1      10.682   1.698   7.471  1.00  0.00    -0.478 OA
ATOM     18  H   UNL     1      10.497   0.782   7.177  1.00  0.00     0.297 HD
ENDBRANCH  15  17
ENDBRANCH   4  15
BRANCH   5  19
ATOM     19  O   UNL     1       9.009   2.835  11.124  1.00  0.00    -0.507 OA
ATOM     20  H   UNL     1       9.864   3.193  10.826  1.00  0.00     0.293 HD
ENDBRANCH   5  19
TORSDOF 4
ENDMDL
MODEL 7
REMARK VINA RESULT:    -4.670      4.275      6.606
REMARK INTER + INTRA:          -6.115
REMARK INTER:                  -5.058
REMARK INTRA:                  -1.057
REMARK UNBOUND:                -0.626
REMARK SMILES O=C(O)c1cc(-c2ccc(F)cc2F)ccc1O
REMARK SMILES IDX 6 1 5 2 15 3 4 4 17 5 16 6 7 7 13 8 12 9 8 10 10 11 9 12
REMARK SMILES IDX 14 13 11 14 2 15 1 16 3 17 18 19
REMARK H PARENT 3 18 18 20
ROOT
ATOM      1  C   UNL     1       6.598   2.019   8.000  1.00  0.00    -0.014 A 
ATOM      2  C   UNL     1       6.045   2.493   9.189  1.00  0.00     0.028 A 
ATOM      3  C   UNL     1       7.976   1.826   7.900  1.00  0.00     0.013 A 
ATOM      4  C   UNL     1       6.869   2.775  10.279  1.00  0.00     0.102 A 
ATOM      5  C   UNL     1       8.247   2.582  10.179  1.00  0.00     0.130 A 
ATOM      6  C   UNL     1       8.801   2.108   8.989  1.00  0.00     0.048 A 
ENDROOT
BRANCH   1   7
ATOM      7  C   UNL     1       5.744   1.728   6.869  1.00  0.00     0.018 A 
ATOM      8  C   UNL     1       5.364   0.413   6.598  1.00  0.00     0.133 A 
ATOM      9  C   UNL     1       4.540   0.137   5.506  1.00  0.00     0.079 A 
ATOM     10  C   UNL     1       5.300   2.765   6.049  1.00  0.00     0.015 A 
ATOM     11  C   UNL     1       4.098   1.174   4.686  1.00  0.00     0.126 A 
ATOM     12  C   UNL     1       4.477   2.488   4.958  1.00  0.00     0.040 A 
ATOM     13  F   UNL     1       5.784  -0.596   7.375  1.00  0.00    -0.206 F 
ATOM     14  F   UNL     1       3.307   0.909   3.638  1.00  0.00    -0.207 F 
ENDBRANCH   1   7
BRANCH   4  15
ATOM     15  C   UNL     1       6.272   3.268  11.512  1.00  0.00     0.339 C 
ATOM     16  O   UNL     1       6.894   3.724  12.474  1.00  0.00    -0.246 OA
BRANCH  15  17
ATOM     17  O   UNL     1       4.914   3.177  11.502  1.00  0.00    -0.478 OA
ATOM     18  H   UNL     1       4.540   3.204  12.408  1.00  0.00     0.297 HD
ENDBRANCH  15  17
ENDBRANCH   4  15
BRANCH   5  19
ATOM     19  O   UNL     1       9.070   2.851  11.232  1.00  0.00    -0.507 OA
ATOM     20  H   UNL     1       8.529   3.107  12.000  1.00  0.00     0.293 HD
ENDBRANCH   5  19
TORSDOF 4
ENDMDL
MODEL 8
REMARK VINA RESULT:    -3.889      6.079      8.501
REMARK INTER + INTRA:          -5.197
REMARK INTER:                  -4.127
REMARK INTRA:                  -1.071
REMARK UNBOUND:                -0.626
REMARK SMILES O=C(O)c1cc(-c2ccc(F)cc2F)ccc1O
REMARK SMILES IDX 6 1 5 2 15 3 4 4 17 5 16 6 7 7 13 8 12 9 8 10 10 11 9 12
REMARK SMILES IDX 14 13 11 14 2 15 1 16 3 17 18 19
REMARK H PARENT 3 18 18 20
ROOT
ATOM      1  C   UNL     1       6.820   2.930  11.694  1.00  0.00    -0.014 A 
ATOM      2  C   UNL     1       7.946   3.500  12.288  1.00  0.00     0.028 A 
ATOM      3  C   UNL     1       5.699   2.632  12.469  1.00  0.00     0.013 A 
ATOM      4  C   UNL     1       7.951   3.772  13.656  1.00  0.00     0.102 A 
ATOM      5  C   UNL     1       6.830   3.475  14.430  1.00  0.00     0.130 A 
ATOM      6  C   UNL     1       5.703   2.904  13.836  1.00  0.00     0.048 A 
ENDROOT
BRANCH   1   7
ATOM      7  C   UNL     1       6.815   2.646  10.275  1.00  0.00     0.018 A 
ATOM      8  C   UNL     1       6.513   3.655   9.360  1.00  0.00     0.133 A 
ATOM      9  C   UNL     1       6.508   3.376   7.993  1.00  0.00     0.079 A 
ATOM     10  C   UNL     1       7.113   1.361   9.824  1.00  0.00     0.015 A 
ATOM     11  C   UNL     1       6.806   2.091   7.542  1.00  0.00     0.126 A 
ATOM     12  C   UNL     1       7.108   1.083   8.458  1.00  0.00     0.040 A 
ATOM     13  F   UNL     1       6.221   4.895   9.778  1.00  0.00    -0.206 F 
ATOM     14  F   UNL     1       6.802   1.823   6.230  1.00  0.00    -0.207 F 
ENDBRANCH   1   7
BRANCH   4  15
ATOM     15  C   UNL     1       9.137   4.368  14.257  1.00  0.00     0.339 C 
ATOM     16  O   UNL     1       9.299   4.576  15.462  1.00  0.00    -0.246 OA
BRANCH  15  17
ATOM     17  O   UNL     1      10.083   4.684  13.332  1.00  0.00    -0.478 OA
ATOM     18  H   UNL     1       9.991   4.147  12.517  1.00  0.00     0.297 HD
ENDBRANCH  15  17
ENDBRANCH   4  15
BRANCH   5  19
ATOM     19  O   UNL     1       6.814   3.734  15.769  1.00  0.00    -0.507 OA
ATOM     20  H   UNL     1       7.526   3.227  16.198  1.00  0.00     0.293 HD
ENDBRANCH   5  19
TORSDOF 4
ENDMDL
MODEL 9
REMARK VINA RESULT:    -3.765      3.729      5.391
REMARK INTER + INTRA:          -5.051
REMARK INTER:                  -3.980
REMARK INTRA:                  -1.071
REMARK UNBOUND:                -0.626
REMARK SMILES O=C(O)c1cc(-c2ccc(F)cc2F)ccc1O
REMARK SMILES IDX 6 1 5 2 15 3 4 4 17 5 16 6 7 7 13 8 12 9 8 10 10 11 9 12
REMARK SMILES IDX 14 13 11 14 2 15 1 16 3 17 18 19
REMARK H PARENT 3 18 18 20
ROOT
ATOM      1  C   UNL     1       6.731   2.855  10.066  1.00  0.00    -0.014 A 
ATOM      2  C   UNL     1       6.400   3.897   9.201  1.00  0.00     0.028 A 
ATOM      3  C   UNL     1       6.977   1.579   9.559  1.00  0.00     0.013 A 
ATOM      4  C   UNL     1       6.314   3.663   7.828  1.00  0.00     0.102 A 
ATOM      5  C   UNL     1       6.560   2.387   7.321  1.00  0.00     0.130 A 
ATOM      6  C   UNL     1       6.892   1.345   8.187  1.00  0.00     0.048 A 
ENDROOT
BRANCH   1   7
ATOM      7  C   UNL     1       6.819   3.096  11.491  1.00  0.00     0.018 A 
ATOM      8  C   UNL     1       5.686   2.965  12.294  1.00  0.00     0.133 A 
ATOM      9  C   UNL     1       5.775   3.199  13.667  1.00  0.00     0.079 A 
ATOM     10  C   UNL     1       8.040   3.458  12.059  1.00  0.00     0.015 A 
ATOM     11  C   UNL     1       6.996   3.562  14.235  1.00  0.00     0.126 A 
ATOM     12  C   UNL     1       8.128   3.691  13.431  1.00  0.00     0.040 A 
ATOM     13  F   UNL     1       4.505   2.620  11.763  1.00  0.00    -0.206 F 
ATOM     14  F   UNL     1       7.082   3.786  15.552  1.00  0.00    -0.207 F 
ENDBRANCH   1   7
BRANCH   4  15
ATOM     15  C   UNL     1       5.967   4.765   6.941  1.00  0.00     0.339 C 
ATOM     16  O   UNL     1       5.398   4.653   5.852  1.00  0.00    -0.246 OA
BRANCH  15  17
ATOM     17  O   UNL     1       6.339   5.973   7.445  1.00  0.00    -0.478 OA
ATOM     18  H   UNL     1       7.287   5.987   7.694  1.00  0.00     0.297 HD
ENDBRANCH  15  17
ENDBRANCH   4  15
BRANCH   5  19
ATOM     19  O   UNL     1       6.482   2.139   5.983  1.00  0.00    -0.507 OA
ATOM     20  H   UNL     1       5.988   2.859   5.555  1.00  0.00     0.293 HD
ENDBRANCH   5  19
TORSDOF 4
ENDMDL
