MODEL 1
REMARK VINA RESULT:    -6.922      0.000      0.000
REMARK INTER + INTRA:          -8.723
REMARK INTER:                  -8.136
REMARK INTRA:                  -0.587
REMARK UNBOUND:                -0.587
REMARK SMILES O=C(O)c1cc(-c2ccc(F)cc2F)ccc1O
REMARK SMILES IDX 6 1 5 2 15 3 4 4 17 5 16 6 7 7 13 8 12 9 8 10 10 11 9 12
REMARK SMILES IDX 14 13 11 14 2 15 1 16 3 17 18 19
REMARK H PARENT 3 18 18 20
ROOT
ATOM      1  C   UNL     1      -1.355   8.428  -0.918  1.00  0.00    -0.014 A 
ATOM      2  C   UNL     1      -0.640   8.069   0.223  1.00  0.00     0.028 A 
ATOM      3  C   UNL     1      -1.909   7.440  -1.733  1.00  0.00     0.013 A 
ATOM      4  C   UNL     1      -0.478   6.722   0.551  1.00  0.00     0.102 A 
ATOM      5  C   UNL     1      -1.032   5.735  -0.263  1.00  0.00     0.130 A 
ATOM      6  C   UNL     1      -1.748   6.094  -1.406  1.00  0.00     0.048 A 
ENDROOT
BRANCH   1   7
ATOM      7  C   UNL     1      -1.522   9.824  -1.260  1.00  0.00     0.018 A 
ATOM      8  C   UNL     1      -1.280  10.260  -2.563  1.00  0.00     0.133 A 
ATOM      9  C   UNL     1      -1.442  11.607  -2.888  1.00  0.00     0.079 A 
ATOM     10  C   UNL     1      -1.926  10.734  -0.283  1.00  0.00     0.015 A 
ATOM     11  C   UNL     1      -1.846  12.517  -1.911  1.00  0.00     0.126 A 
ATOM     12  C   UNL     1      -2.088  12.080  -0.609  1.00  0.00     0.040 A 
ATOM     13  F   UNL     1      -0.889   9.399  -3.513  1.00  0.00    -0.206 F 
ATOM     14  F   UNL     1      -2.001  13.810  -2.222  1.00  0.00    -0.207 F 
ENDBRANCH   1   7
BRANCH   4  15
ATOM     15  C   UNL     1       0.272   6.368   1.748  1.00  0.00     0.339 C 
ATOM     16  O   UNL     1       1.246   5.612   1.783  1.00  0.00    -0.246 OA
BRANCH  15  17
ATOM     17  O   UNL     1      -0.218   6.973   2.865  1.00  0.00    -0.478 OA
ATOM     18  H   UNL     1      -1.150   6.723   3.035  1.00  0.00     0.297 HD
ENDBRANCH  15  17
ENDBRANCH   4  15
BRANCH   5  19
ATOM     19  O   UNL     1      -0.886   4.414   0.039  1.00  0.00    -0.507 OA
ATOM     20  H   UNL     1      -1.698   4.096   0.470  1.00  0.00     0.293 HD
ENDBRANCH   5  19
TORSDOF 4
ENDMDL
MODEL 2
REMARK VINA RESULT:    -6.915      1.667      3.141
REMARK INTER + INTRA:          -8.715
REMARK INTER:                  -8.130
REMARK INTRA:                  -0.585
REMARK UNBOUND:                -0.587
REMARK SMILES O=C(O)c1cc(-c2ccc(F)cc2F)ccc1O
REMARK SMILES IDX 6 1 5 2 15 3 4 4 17 5 16 6 7 7 13 8 12 9 8 10 10 11 9 12
REMARK SMILES IDX 14 13 11 14 2 15 1 16 3 17 18 19
REMARK H PARENT 3 18 18 20
ROOT
ATOM      1  C   UNL     1      -1.300   8.443  -0.873  1.00  0.00    -0.014 A 
ATOM      2  C   UNL     1      -1.856   7.486  -1.721  1.00  0.00     0.028 A 
ATOM      3  C   UNL     1      -0.580   8.043   0.253  1.00  0.00     0.013 A 
ATOM      4  C   UNL     1      -1.693   6.129  -1.444  1.00  0.00     0.102 A 
ATOM      5  C   UNL     1      -0.973   5.729  -0.318  1.00  0.00     0.130 A 
ATOM      6  C   UNL     1      -0.416   6.687   0.530  1.00  0.00     0.048 A 
ENDROOT
BRANCH   1   7
ATOM      7  C   UNL     1      -1.471   9.851  -1.159  1.00  0.00     0.018 A 
ATOM      8  C   UNL     1      -1.866  10.729  -0.148  1.00  0.00     0.133 A 
ATOM      9  C   UNL     1      -2.029  12.086  -0.428  1.00  0.00     0.079 A 
ATOM     10  C   UNL     1      -1.237  10.331  -2.447  1.00  0.00     0.015 A 
ATOM     11  C   UNL     1      -1.797  12.565  -1.717  1.00  0.00     0.126 A 
ATOM     12  C   UNL     1      -1.401  11.687  -2.726  1.00  0.00     0.040 A 
ATOM     13  F   UNL     1      -2.097  10.283   1.095  1.00  0.00    -0.206 F 
ATOM     14  F   UNL     1      -1.954  13.867  -1.987  1.00  0.00    -0.207 F 
ENDBRANCH   1   7
BRANCH   4  15
ATOM     15  C   UNL     1      -2.281   5.145  -2.342  1.00  0.00     0.339 C 
ATOM     16  O   UNL     1      -3.051   4.242  -2.006  1.00  0.00    -0.246 OA
BRANCH  15  17
ATOM     17  O   UNL     1      -1.889   5.322  -3.633  1.00  0.00    -0.478 OA
ATOM     18  H   UNL     1      -2.238   4.618  -4.220  1.00  0.00     0.297 HD
ENDBRANCH  15  17
ENDBRANCH   4  15
BRANCH   5  19
ATOM     19  O   UNL     1      -0.801   4.407  -0.030  1.00  0.00    -0.507 OA
ATOM     20  H   UNL     1       0.019   4.298   0.482  1.00  0.00     0.293 HD
ENDBRANCH   5  19
TORSDOF 4
ENDMDL
MODEL 3
REMARK VINA RESULT:    -6.908      1.140      1.621
REMARK INTER + INTRA:          -8.707
REMARK INTER:                  -8.042
REMARK INTRA:                  -0.665
REMARK UNBOUND:                -0.587
REMARK SMILES O=C(O)c1cc(-c2ccc(F)cc2F)ccc1O
REMARK SMILES IDX 6 1 5 2 15 3 4 4 17 5 16 6 7 7 13 8 12 9 8 10 10 11 9 12
REMARK SMILES IDX 14 13 11 14 2 15 1 16 3 17 18 19
REMARK H PARENT 3 18 18 20
ROOT
ATOM      1  C   UNL     1      -1.359   8.504  -0.822  1.00  0.00    -0.014 A 
ATOM      2  C   UNL     1      -0.599   8.169   0.298  1.00  0.00     0.028 A 
ATOM      3  C   UNL     1      -1.937   7.499  -1.598  1.00  0.00     0.013 A 
ATOM      4  C   UNL     1      -0.415   6.830   0.642  1.00  0.00     0.102 A 
ATOM      5  C   UNL     1      -0.992   5.825  -0.134  1.00  0.00     0.130 A 
ATOM      6  C   UNL     1      -1.753   6.160  -1.255  1.00  0.00     0.048 A 
ENDROOT
BRANCH   1   7
ATOM      7  C   UNL     1      -1.549   9.893  -1.180  1.00  0.00     0.018 A 
ATOM      8  C   UNL     1      -1.937  10.819  -0.211  1.00  0.00     0.133 A 
ATOM      9  C   UNL     1      -2.120  12.157  -0.561  1.00  0.00     0.079 A 
ATOM     10  C   UNL     1      -1.343  10.305  -2.496  1.00  0.00     0.015 A 
ATOM     11  C   UNL     1      -1.914  12.569  -1.878  1.00  0.00     0.126 A 
ATOM     12  C   UNL     1      -1.525  11.642  -2.845  1.00  0.00     0.040 A 
ATOM     13  F   UNL     1      -2.143  10.439   1.058  1.00  0.00    -0.206 F 
ATOM     14  F   UNL     1      -2.089  13.853  -2.214  1.00  0.00    -0.207 F 
ENDBRANCH   1   7
BRANCH   4  15
ATOM     15  C   UNL     1       0.383   6.501   1.816  1.00  0.00     0.339 C 
ATOM     16  O   UNL     1       1.259   5.635   1.864  1.00  0.00    -0.246 OA
BRANCH  15  17
ATOM     17  O   UNL     1       0.060   7.269   2.893  1.00  0.00    -0.478 OA
ATOM     18  H   UNL     1       0.779   7.282   3.559  1.00  0.00     0.297 HD
ENDBRANCH  15  17
ENDBRANCH   4  15
BRANCH   5  19
ATOM     19  O   UNL     1      -0.825   4.510   0.185  1.00  0.00    -0.507 OA
ATOM     20  H   UNL     1      -0.090   4.428   0.818  1.00  0.00     0.293 HD
ENDBRANCH   5  19
TORSDOF 4
ENDMDL
MODEL 4
REMARK VINA RESULT:    -6.903      1.214      2.697
REMARK INTER + INTRA:          -8.701
REMARK INTER:                  -8.119
REMARK INTRA:                  -0.582
REMARK UNBOUND:                -0.587
REMARK SMILES O=C(O)c1cc(-c2ccc(F)cc2F)ccc1O
REMARK SMILES IDX 6 1 5 2 15 3 4 4 17 5 16 6 7 7 13 8 12 9 8 10 10 11 9 12
REMARK SMILES IDX 14 13 11 14 2 15 1 16 3 17 18 19
REMARK H PARENT 3 18 18 20
ROOT
ATOM      1  C   UNL     1      -1.293   8.454  -0.911  1.00  0.00    -0.014 A 
ATOM      2  C   UNL     1      -1.853   7.491  -1.749  1.00  0.00     0.028 A 
ATOM      3  C   UNL     1      -0.571   8.064   0.216  1.00  0.00     0.013 A 
ATOM      4  C   UNL     1      -1.692   6.136  -1.459  1.00  0.00     0.102 A 
ATOM      5  C   UNL     1      -0.971   5.745  -0.331  1.00  0.00     0.130 A 
ATOM      6  C   UNL     1      -0.410   6.710   0.507  1.00  0.00     0.048 A 
ENDROOT
BRANCH   1   7
ATOM      7  C   UNL     1      -1.461   9.860  -1.211  1.00  0.00     0.018 A 
ATOM      8  C   UNL     1      -1.254  10.330  -2.508  1.00  0.00     0.133 A 
ATOM      9  C   UNL     1      -1.416  11.686  -2.792  1.00  0.00     0.079 A 
ATOM     10  C   UNL     1      -1.830  10.746  -0.199  1.00  0.00     0.015 A 
ATOM     11  C   UNL     1      -1.785  12.572  -1.780  1.00  0.00     0.126 A 
ATOM     12  C   UNL     1      -1.993  12.101  -0.484  1.00  0.00     0.040 A 
ATOM     13  F   UNL     1      -0.895   9.492  -3.492  1.00  0.00    -0.206 F 
ATOM     14  F   UNL     1      -1.942  13.874  -2.052  1.00  0.00    -0.207 F 
ENDBRANCH   1   7
BRANCH   4  15
ATOM     15  C   UNL     1      -2.285   5.145  -2.347  1.00  0.00     0.339 C 
ATOM     16  O   UNL     1      -3.052   4.244  -1.999  1.00  0.00    -0.246 OA
BRANCH  15  17
ATOM     17  O   UNL     1      -1.900   5.312  -3.641  1.00  0.00    -0.478 OA
ATOM     18  H   UNL     1      -1.091   4.801  -3.850  1.00  0.00     0.297 HD
ENDBRANCH  15  17
ENDBRANCH   4  15
BRANCH   5  19
ATOM     19  O   UNL     1      -0.801   4.426  -0.031  1.00  0.00    -0.507 OA
ATOM     20  H   UNL     1      -1.394   3.895  -0.590  1.00  0.00     0.293 HD
ENDBRANCH   5  19
TORSDOF 4
ENDMDL
MODEL 5
REMARK VINA RESULT:    -5.281      4.409      6.717
REMARK INTER + INTRA:          -6.795
REMARK INTER:                  -5.715
REMARK INTRA:                  -1.080
REMARK UNBOUND:                -0.587
REMARK SMILES O=C(O)c1cc(-c2ccc(F)cc2F)ccc1O
REMARK SMILES IDX 6 1 5 2 15 3 4 4 17 5 16 6 7 7 13 8 12 9 8 10 10 11 9 12
REMARK SMILES IDX 14 13 11 14 2 15 1 16 3 17 18 19
REMARK H PARENT 3 18 18 20
ROOT
ATOM      1  C   UNL     1      -1.687  10.932  -1.652  1.00  0.00    -0.014 A 
ATOM      2  C   UNL     1      -2.854  11.456  -2.207  1.00  0.00     0.028 A 
ATOM      3  C   UNL     1      -0.637  11.781  -1.306  1.00  0.00     0.013 A 
ATOM      4  C   UNL     1      -2.971  12.831  -2.416  1.00  0.00     0.102 A 
ATOM      5  C   UNL     1      -1.920  13.680  -2.070  1.00  0.00     0.130 A 
ATOM      6  C   UNL     1      -0.752  13.155  -1.514  1.00  0.00     0.048 A 
ENDROOT
BRANCH   1   7
ATOM      7  C   UNL     1      -1.565   9.506  -1.436  1.00  0.00     0.018 A 
ATOM      8  C   UNL     1      -1.107   8.679  -2.462  1.00  0.00     0.133 A 
ATOM      9  C   UNL     1      -0.991   7.305  -2.250  1.00  0.00     0.079 A 
ATOM     10  C   UNL     1      -1.905   8.960  -0.198  1.00  0.00     0.015 A 
ATOM     11  C   UNL     1      -1.332   6.759  -1.013  1.00  0.00     0.126 A 
ATOM     12  C   UNL     1      -1.788   7.587   0.013  1.00  0.00     0.040 A 
ATOM     13  F   UNL     1      -0.779   9.188  -3.658  1.00  0.00    -0.206 F 
ATOM     14  F   UNL     1      -1.221   5.440  -0.808  1.00  0.00    -0.207 F 
ENDBRANCH   1   7
BRANCH   4  15
ATOM     15  C   UNL     1      -4.198  13.359  -2.996  1.00  0.00     0.339 C 
ATOM     16  O   UNL     1      -4.497  14.553  -3.067  1.00  0.00    -0.246 OA
BRANCH  15  17
ATOM     17  O   UNL     1      -5.011  12.377  -3.471  1.00  0.00    -0.478 OA
ATOM     18  H   UNL     1      -5.076  11.623  -2.847  1.00  0.00     0.297 HD
ENDBRANCH  15  17
ENDBRANCH   4  15
BRANCH   5  19
ATOM     19  O   UNL     1      -2.014  15.026  -2.265  1.00  0.00    -0.507 OA
ATOM     20  H   UNL     1      -2.922  15.244  -2.538  1.00  0.00     0.293 HD
ENDBRANCH   5  19
TORSDOF 4
ENDMDL
MODEL 6
REMARK VINA RESULT:    -5.251      4.543      6.906
REMARK INTER + INTRA:          -6.759
REMARK INTER:                  -5.692
REMARK INTRA:                  -1.068
REMARK UNBOUND:                -0.587
REMARK SMILES O=C(O)c1cc(-c2ccc(F)cc2F)ccc1O
REMARK SMILES IDX 6 1 5 2 15 3 4 4 17 5 16 6 7 7 13 8 12 9 8 10 10 11 9 12
REMARK SMILES IDX 14 13 11 14 2 15 1 16 3 17 18 19
REMARK H PARENT 3 18 18 20
ROOT
ATOM      1  C   UNL     1      -1.645  11.057  -1.441  1.00  0.00    -0.014 A 
ATOM      2  C   UNL     1      -2.826  11.510  -2.027  1.00  0.00     0.028 A 
ATOM      3  C   UNL     1      -0.614  11.956  -1.165  1.00  0.00     0.013 A 
ATOM      4  C   UNL     1      -2.977  12.861  -2.340  1.00  0.00     0.102 A 
ATOM      5  C   UNL     1      -1.946  13.759  -2.065  1.00  0.00     0.130 A 
ATOM      6  C   UNL     1      -0.764  13.307  -1.477  1.00  0.00     0.048 A 
ENDROOT
BRANCH   1   7
ATOM      7  C   UNL     1      -1.487   9.655  -1.117  1.00  0.00     0.018 A 
ATOM      8  C   UNL     1      -1.739   9.203   0.178  1.00  0.00     0.133 A 
ATOM      9  C   UNL     1      -1.585   7.851   0.486  1.00  0.00     0.079 A 
ATOM     10  C   UNL     1      -1.084   8.757  -2.105  1.00  0.00     0.015 A 
ATOM     11  C   UNL     1      -1.181   6.952  -0.501  1.00  0.00     0.126 A 
ATOM     12  C   UNL     1      -0.931   7.406  -1.797  1.00  0.00     0.040 A 
ATOM     13  F   UNL     1      -2.124  10.054   1.139  1.00  0.00    -0.206 F 
ATOM     14  F   UNL     1      -1.033   5.654  -0.207  1.00  0.00    -0.207 F 
ENDBRANCH   1   7
BRANCH   4  15
ATOM     15  C   UNL     1      -4.219  13.314  -2.952  1.00  0.00     0.339 C 
ATOM     16  O   UNL     1      -4.571  14.490  -3.066  1.00  0.00    -0.246 OA
BRANCH  15  17
ATOM     17  O   UNL     1      -4.980  12.280  -3.405  1.00  0.00    -0.478 OA
ATOM     18  H   UNL     1      -5.594  11.950  -2.716  1.00  0.00     0.297 HD
ENDBRANCH  15  17
ENDBRANCH   4  15
BRANCH   5  19
ATOM     19  O   UNL     1      -2.074  15.084  -2.362  1.00  0.00    -0.507 OA
ATOM     20  H   UNL     1      -1.189  15.467  -2.490  1.00  0.00     0.293 HD
ENDBRANCH   5  19
TORSDOF 4
ENDMDL
MODEL 7
REMARK VINA RESULT:    -5.212      4.213      6.483
REMARK INTER + INTRA:          -6.713
REMARK INTER:                  -5.645
REMARK INTRA:                  -1.068
REMARK UNBOUND:                -0.587
REMARK SMILES O=C(O)c1cc(-c2ccc(F)cc2F)ccc1O
REMARK SMILES IDX 6 1 5 2 15 3 4 4 17 5 16 6 7 7 13 8 12 9 8 10 10 11 9 12
REMARK SMILES IDX 14 13 11 14 2 15 1 16 3 17 18 19
REMARK H PARENT 3 18 18 20
ROOT
ATOM      1  C   UNL     1      -1.607  11.014  -1.385  1.00  0.00    -0.014 A 
ATOM      2  C   UNL     1      -0.591  11.926  -1.099  1.00  0.00     0.028 A 
ATOM      3  C   UNL     1      -2.782  11.448  -1.999  1.00  0.00     0.013 A 
ATOM      4  C   UNL     1      -0.750  13.272  -1.427  1.00  0.00     0.102 A 
ATOM      5  C   UNL     1      -1.924  13.707  -2.041  1.00  0.00     0.130 A 
ATOM      6  C   UNL     1      -2.941  12.794  -2.327  1.00  0.00     0.048 A 
ENDROOT
BRANCH   1   7
ATOM      7  C   UNL     1      -1.444   9.617  -1.043  1.00  0.00     0.018 A 
ATOM      8  C   UNL     1      -1.717   9.176   0.252  1.00  0.00     0.133 A 
ATOM      9  C   UNL     1      -1.559   7.828   0.577  1.00  0.00     0.079 A 
ATOM     10  C   UNL     1      -1.014   8.712  -2.013  1.00  0.00     0.015 A 
ATOM     11  C   UNL     1      -1.128   6.923  -0.392  1.00  0.00     0.126 A 
ATOM     12  C   UNL     1      -0.856   7.365  -1.687  1.00  0.00     0.040 A 
ATOM     13  F   UNL     1      -2.129  10.034   1.196  1.00  0.00    -0.206 F 
ATOM     14  F   UNL     1      -0.975   5.630  -0.082  1.00  0.00    -0.207 F 
ENDBRANCH   1   7
BRANCH   4  15
ATOM     15  C   UNL     1       0.323  14.209  -1.120  1.00  0.00     0.339 C 
ATOM     16  O   UNL     1       0.240  15.437  -1.189  1.00  0.00    -0.246 OA
BRANCH  15  17
ATOM     17  O   UNL     1       1.466  13.579  -0.735  1.00  0.00    -0.478 OA
ATOM     18  H   UNL     1       1.889  14.026   0.028  1.00  0.00     0.297 HD
ENDBRANCH  15  17
ENDBRANCH   4  15
BRANCH   5  19
ATOM     19  O   UNL     1      -2.098  15.018  -2.370  1.00  0.00    -0.507 OA
ATOM     20  H   UNL     1      -1.504  15.242  -3.107  1.00  0.00     0.293 HD
ENDBRANCH   5  19
TORSDOF 4
ENDMDL
MODEL 8
REMARK VINA RESULT:    -4.664      1.646      2.049
REMARK INTER + INTRA:          -6.069
REMARK INTER:                  -5.074
REMARK INTRA:                  -0.995
REMARK UNBOUND:                -0.587
REMARK SMILES O=C(O)c1cc(-c2ccc(F)cc2F)ccc1O
REMARK SMILES IDX 6 1 5 2 15 3 4 4 17 5 16 6 7 7 13 8 12 9 8 10 10 11 9 12
REMARK SMILES IDX 14 13 11 14 2 15 1 16 3 17 18 19
REMARK H PARENT 3 18 18 20
ROOT
ATOM      1  C   UNL     1      -1.329   9.792  -1.406  1.00  0.00    -0.014 A 
ATOM      2  C   UNL     1      -1.256   9.418  -0.065  1.00  0.00     0.028 A 
ATOM      3  C   UNL     1      -0.958   8.890  -2.404  1.00  0.00     0.013 A 
ATOM      4  C   UNL     1      -0.813   8.140   0.279  1.00  0.00     0.102 A 
ATOM      5  C   UNL     1      -0.443   7.238  -0.718  1.00  0.00     0.130 A 
ATOM      6  C   UNL     1      -0.516   7.613  -2.060  1.00  0.00     0.048 A 
ENDROOT
BRANCH   1   7
ATOM      7  C   UNL     1      -1.787  11.118  -1.764  1.00  0.00     0.018 A 
ATOM      8  C   UNL     1      -0.979  12.229  -1.517  1.00  0.00     0.133 A 
ATOM      9  C   UNL     1      -1.425  13.504  -1.863  1.00  0.00     0.079 A 
ATOM     10  C   UNL     1      -3.037  11.283  -2.359  1.00  0.00     0.015 A 
ATOM     11  C   UNL     1      -2.676  13.669  -2.457  1.00  0.00     0.126 A 
ATOM     12  C   UNL     1      -3.482  12.558  -2.706  1.00  0.00     0.040 A 
ATOM     13  F   UNL     1       0.224  12.088  -0.943  1.00  0.00    -0.206 F 
ATOM     14  F   UNL     1      -3.104  14.893  -2.790  1.00  0.00    -0.207 F 
ENDBRANCH   1   7
BRANCH   4  15
ATOM     15  C   UNL     1      -0.745   7.768   1.686  1.00  0.00     0.339 C 
ATOM     16  O   UNL     1      -0.150   6.786   2.136  1.00  0.00    -0.246 OA
BRANCH  15  17
ATOM     17  O   UNL     1      -1.421   8.637   2.485  1.00  0.00    -0.478 OA
ATOM     18  H   UNL     1      -0.814   9.192   3.017  1.00  0.00     0.297 HD
ENDBRANCH  15  17
ENDBRANCH   4  15
BRANCH   5  19
ATOM     19  O   UNL     1      -0.008   5.985  -0.403  1.00  0.00    -0.507 OA
ATOM     20  H   UNL     1       0.789   5.786  -0.923  1.00  0.00     0.293 HD
ENDBRANCH   5  19
TORSDOF 4
ENDMDL
MODEL 9
REMARK VINA RESULT:    -4.613      2.080      3.217
REMARK INTER + INTRA:          -6.009
REMARK INTER:                  -5.030
REMARK INTRA:                  -0.979
REMARK UNBOUND:                -0.587
REMARK SMILES O=C(O)c1cc(-c2ccc(F)cc2F)ccc1O
REMARK SMILES IDX 6 1 5 2 15 3 4 4 17 5 16 6 7 7 13 8 12 9 8 10 10 11 9 12
REMARK SMILES IDX 14 13 11 14 2 15 1 16 3 17 18 19
REMARK H PARENT 3 18 18 20
ROOT
ATOM      1  C   UNL     1      -1.674   9.954  -0.966  1.00  0.00    -0.014 A 
ATOM      2  C   UNL     1      -1.584   9.042  -2.017  1.00  0.00     0.028 A 
ATOM      3  C   UNL     1      -1.889   9.499   0.335  1.00  0.00     0.013 A 
ATOM      4  C   UNL     1      -1.708   7.675  -1.768  1.00  0.00     0.102 A 
ATOM      5  C   UNL     1      -1.923   7.220  -0.467  1.00  0.00     0.130 A 
ATOM      6  C   UNL     1      -2.013   8.133   0.585  1.00  0.00     0.048 A 
ENDROOT
BRANCH   1   7
ATOM      7  C   UNL     1      -1.547  11.372  -1.224  1.00  0.00     0.018 A 
ATOM      8  C   UNL     1      -2.551  12.052  -1.914  1.00  0.00     0.133 A 
ATOM      9  C   UNL     1      -2.424  13.419  -2.161  1.00  0.00     0.079 A 
ATOM     10  C   UNL     1      -0.417  12.059  -0.781  1.00  0.00     0.015 A 
ATOM     11  C   UNL     1      -1.294  14.106  -1.718  1.00  0.00     0.126 A 
ATOM     12  C   UNL     1      -0.291  13.426  -1.027  1.00  0.00     0.040 A 
ATOM     13  F   UNL     1      -3.642  11.405  -2.349  1.00  0.00    -0.206 F 
ATOM     14  F   UNL     1      -1.172  15.418  -1.954  1.00  0.00    -0.207 F 
ENDBRANCH   1   7
BRANCH   4  15
ATOM     15  C   UNL     1      -1.610   6.739  -2.880  1.00  0.00     0.339 C 
ATOM     16  O   UNL     1      -1.985   5.564  -2.859  1.00  0.00    -0.246 OA
BRANCH  15  17
ATOM     17  O   UNL     1      -1.049   7.303  -3.984  1.00  0.00    -0.478 OA
ATOM     18  H   UNL     1      -0.080   7.413  -3.884  1.00  0.00     0.297 HD
ENDBRANCH  15  17
ENDBRANCH   4  15
BRANCH   5  19
ATOM     19  O   UNL     1      -2.046   5.889  -0.203  1.00  0.00    -0.507 OA
ATOM     20  H   UNL     1      -2.891   5.570  -0.567  1.00  0.00     0.293 HD
ENDBRANCH   5  19
TORSDOF 4
ENDMDL
