MODEL 1
REMARK VINA RESULT:    -5.199      0.000      0.000
REMARK INTER + INTRA:          -7.216
REMARK INTER:                  -6.415
REMARK INTRA:                  -0.801
REMARK UNBOUND:                -0.801
REMARK SMILES Cc1ccc(C(=O)c2cc(O)c(O)c([N+](=O)[O-])c2)cc1
REMARK SMILES IDX 8 1 18 2 9 3 14 4 10 5 12 6 6 7 7 8 5 9 4 10 19 11 3 12
REMARK SMILES IDX 20 13 2 14 1 15 15 16 17 17 16 18 11 19 13 21
REMARK H PARENT 11 20 13 22
ROOT
ATOM      1  C   UNL     1      -0.433   8.428  -0.720  1.00  0.00     0.033 A 
ATOM      2  C   UNL     1      -1.233   7.720  -1.586  1.00  0.00     0.102 A 
ATOM      3  C   UNL     1       0.197   7.850   0.356  1.00  0.00     0.063 A 
ATOM      4  C   UNL     1      -1.413   6.355  -1.364  1.00  0.00     0.315 A 
ATOM      5  C   UNL     1       0.018   6.484   0.579  1.00  0.00     0.165 A 
ATOM      6  C   UNL     1      -0.787   5.736  -0.281  1.00  0.00     0.237 A 
ENDROOT
BRANCH   1   7
ATOM      7  C   UNL     1      -0.241   9.891  -0.958  1.00  0.00     0.193 C 
ATOM      8  O   UNL     1       0.867  10.372  -0.678  1.00  0.00    -0.289 OA
BRANCH   7   9
ATOM      9  C   UNL     1      -1.293  10.738  -1.497  1.00  0.00     0.023 A 
ATOM     10  C   UNL     1      -2.148  11.422  -0.633  1.00  0.00     0.012 A 
ATOM     11  C   UNL     1      -1.447  10.866  -2.877  1.00  0.00     0.012 A 
ATOM     12  C   UNL     1      -3.157  12.235  -1.149  1.00  0.00     0.004 A 
ATOM     13  C   UNL     1      -2.456  11.679  -3.394  1.00  0.00     0.004 A 
ATOM     14  C   UNL     1      -3.311  12.364  -2.530  1.00  0.00    -0.051 A 
ATOM     15  C   UNL     1      -4.391  13.231  -3.082  1.00  0.00     0.044 C 
ENDBRANCH   7   9
ENDBRANCH   1   7
BRANCH   4  16
ATOM     16  N   UNL     1      -2.237   5.610  -2.251  1.00  0.00     0.066 N 
ATOM     17  O   UNL     1      -2.307   5.962  -3.453  1.00  0.00    -0.258 OA
ATOM     18  O   UNL     1      -2.869   4.623  -1.806  1.00  0.00    -0.258 OA
ENDBRANCH   4  16
BRANCH   5  19
ATOM     19  O   UNL     1       0.635   5.893   1.640  1.00  0.00    -0.504 OA
ATOM     20  H   UNL     1       1.386   5.363   1.326  1.00  0.00     0.293 HD
ENDBRANCH   5  19
BRANCH   6  21
ATOM     21  O   UNL     1      -0.955   4.402  -0.053  1.00  0.00    -0.500 OA
ATOM     22  H   UNL     1      -1.574   4.272   0.682  1.00  0.00     0.294 HD
ENDBRANCH   6  21
TORSDOF 5
ENDMDL
MODEL 2
REMARK VINA RESULT:    -5.072      2.045      3.553
REMARK INTER + INTRA:          -7.058
REMARK INTER:                  -6.253
REMARK INTRA:                  -0.805
REMARK UNBOUND:                -0.801
REMARK SMILES Cc1ccc(C(=O)c2cc(O)c(O)c([N+](=O)[O-])c2)cc1
REMARK SMILES IDX 8 1 18 2 9 3 14 4 10 5 12 6 6 7 7 8 5 9 4 10 19 11 3 12
REMARK SMILES IDX 20 13 2 14 1 15 15 16 17 17 16 18 11 19 13 21
REMARK H PARENT 11 20 13 22
ROOT
ATOM      1  C   UNL     1      -2.182   8.163  -1.026  1.00  0.00     0.033 A 
ATOM      2  C   UNL     1      -1.370   8.067   0.081  1.00  0.00     0.102 A 
ATOM      3  C   UNL     1      -2.515   7.079  -1.803  1.00  0.00     0.063 A 
ATOM      4  C   UNL     1      -0.863   6.816   0.429  1.00  0.00     0.315 A 
ATOM      5  C   UNL     1      -2.006   5.827  -1.455  1.00  0.00     0.165 A 
ATOM      6  C   UNL     1      -1.181   5.695  -0.338  1.00  0.00     0.237 A 
ENDROOT
BRANCH   1   7
ATOM      7  C   UNL     1      -2.726   9.503  -1.400  1.00  0.00     0.193 C 
ATOM      8  O   UNL     1      -3.906   9.553  -1.779  1.00  0.00    -0.289 OA
BRANCH   7   9
ATOM      9  C   UNL     1      -1.926  10.716  -1.330  1.00  0.00     0.023 A 
ATOM     10  C   UNL     1      -1.223  11.153  -2.453  1.00  0.00     0.012 A 
ATOM     11  C   UNL     1      -1.863  11.442  -0.141  1.00  0.00     0.012 A 
ATOM     12  C   UNL     1      -0.457  12.316  -2.386  1.00  0.00     0.004 A 
ATOM     13  C   UNL     1      -1.096  12.606  -0.073  1.00  0.00     0.004 A 
ATOM     14  C   UNL     1      -0.393  13.043  -1.196  1.00  0.00    -0.051 A 
ATOM     15  C   UNL     1       0.428  14.286  -1.125  1.00  0.00     0.044 C 
ENDBRANCH   7   9
ENDBRANCH   1   7
BRANCH   4  16
ATOM     16  N   UNL     1      -0.023   6.701   1.571  1.00  0.00     0.066 N 
ATOM     17  O   UNL     1      -0.292   7.379   2.592  1.00  0.00    -0.258 OA
ATOM     18  O   UNL     1       0.961   5.927   1.524  1.00  0.00    -0.258 OA
ENDBRANCH   4  16
BRANCH   5  19
ATOM     19  O   UNL     1      -2.326   4.741  -2.214  1.00  0.00    -0.504 OA
ATOM     20  H   UNL     1      -1.574   4.126  -2.234  1.00  0.00     0.293 HD
ENDBRANCH   5  19
BRANCH   6  21
ATOM     21  O   UNL     1      -0.690   4.466  -0.007  1.00  0.00    -0.500 OA
ATOM     22  H   UNL     1      -0.604   4.398   0.957  1.00  0.00     0.294 HD
ENDBRANCH   6  21
TORSDOF 5
ENDMDL
MODEL 3
REMARK VINA RESULT:    -4.248      1.249      2.932
REMARK INTER + INTRA:          -6.042
REMARK INTER:                  -5.303
REMARK INTRA:                  -0.740
REMARK UNBOUND:                -0.801
REMARK SMILES Cc1ccc(C(=O)c2cc(O)c(O)c([N+](=O)[O-])c2)cc1
REMARK SMILES IDX 8 1 18 2 9 3 14 4 10 5 12 6 6 7 7 8 5 9 4 10 19 11 3 12
REMARK SMILES IDX 20 13 2 14 1 15 15 16 17 17 16 18 11 19 13 21
REMARK H PARENT 11 20 13 22
ROOT
ATOM      1  C   UNL     1      -0.611   8.798  -0.869  1.00  0.00     0.033 A 
ATOM      2  C   UNL     1      -0.098   8.303   0.308  1.00  0.00     0.102 A 
ATOM      3  C   UNL     1      -1.233   8.005  -1.803  1.00  0.00     0.063 A 
ATOM      4  C   UNL     1      -0.217   6.937   0.565  1.00  0.00     0.315 A 
ATOM      5  C   UNL     1      -1.351   6.638  -1.547  1.00  0.00     0.165 A 
ATOM      6  C   UNL     1      -0.843   6.105  -0.362  1.00  0.00     0.237 A 
ENDROOT
BRANCH   1   7
ATOM      7  C   UNL     1      -0.484  10.261  -1.144  1.00  0.00     0.193 C 
ATOM      8  O   UNL     1       0.610  10.792  -0.903  1.00  0.00    -0.289 OA
BRANCH   7   9
ATOM      9  C   UNL     1      -1.583  11.053  -1.673  1.00  0.00     0.023 A 
ATOM     10  C   UNL     1      -1.750  11.181  -3.052  1.00  0.00     0.012 A 
ATOM     11  C   UNL     1      -2.470  11.684  -0.802  1.00  0.00     0.012 A 
ATOM     12  C   UNL     1      -2.804  11.940  -3.559  1.00  0.00     0.004 A 
ATOM     13  C   UNL     1      -3.526  12.444  -1.308  1.00  0.00     0.004 A 
ATOM     14  C   UNL     1      -3.693  12.572  -2.688  1.00  0.00    -0.051 A 
ATOM     15  C   UNL     1      -4.818  13.384  -3.230  1.00  0.00     0.044 C 
ENDBRANCH   7   9
ENDBRANCH   1   7
BRANCH   4  16
ATOM     16  N   UNL     1       0.308   6.411   1.778  1.00  0.00     0.066 N 
ATOM     17  O   UNL     1      -0.161   6.819   2.868  1.00  0.00    -0.258 OA
ATOM     18  O   UNL     1       1.222   5.556   1.722  1.00  0.00    -0.258 OA
ENDBRANCH   4  16
BRANCH   5  19
ATOM     19  O   UNL     1      -1.966   5.837  -2.462  1.00  0.00    -0.504 OA
ATOM     20  H   UNL     1      -2.875   5.653  -2.174  1.00  0.00     0.293 HD
ENDBRANCH   5  19
BRANCH   6  21
ATOM     21  O   UNL     1      -0.965   4.767  -0.122  1.00  0.00    -0.500 OA
ATOM     22  H   UNL     1      -1.777   4.598   0.381  1.00  0.00     0.294 HD
ENDBRANCH   6  21
TORSDOF 5
ENDMDL
MODEL 4
REMARK VINA RESULT:    -4.237      3.537      7.206
REMARK INTER + INTRA:          -6.029
REMARK INTER:                  -5.052
REMARK INTRA:                  -0.977
REMARK UNBOUND:                -0.801
REMARK SMILES Cc1ccc(C(=O)c2cc(O)c(O)c([N+](=O)[O-])c2)cc1
REMARK SMILES IDX 8 1 18 2 9 3 14 4 10 5 12 6 6 7 7 8 5 9 4 10 19 11 3 12
REMARK SMILES IDX 20 13 2 14 1 15 15 16 17 17 16 18 11 19 13 21
REMARK H PARENT 11 20 13 22
ROOT
ATOM      1  C   UNL     1      -1.585  11.388  -2.265  1.00  0.00     0.033 A 
ATOM      2  C   UNL     1      -0.570  12.190  -1.798  1.00  0.00     0.102 A 
ATOM      3  C   UNL     1      -2.787  11.887  -2.707  1.00  0.00     0.063 A 
ATOM      4  C   UNL     1      -0.768  13.570  -1.772  1.00  0.00     0.315 A 
ATOM      5  C   UNL     1      -2.987  13.268  -2.680  1.00  0.00     0.165 A 
ATOM      6  C   UNL     1      -1.976  14.110  -2.213  1.00  0.00     0.237 A 
ENDROOT
BRANCH   1   7
ATOM      7  C   UNL     1      -1.373   9.909  -2.292  1.00  0.00     0.193 C 
ATOM      8  O   UNL     1      -1.536   9.331  -3.377  1.00  0.00    -0.289 OA
BRANCH   7   9
ATOM      9  C   UNL     1      -0.989   9.155  -1.110  1.00  0.00     0.023 A 
ATOM     10  C   UNL     1       0.100   8.284  -1.161  1.00  0.00     0.012 A 
ATOM     11  C   UNL     1      -1.709   9.302   0.075  1.00  0.00     0.012 A 
ATOM     12  C   UNL     1       0.468   7.561  -0.027  1.00  0.00     0.004 A 
ATOM     13  C   UNL     1      -1.341   8.579   1.211  1.00  0.00     0.004 A 
ATOM     14  C   UNL     1      -0.252   7.708   1.159  1.00  0.00    -0.051 A 
ATOM     15  C   UNL     1       0.141   6.933   2.371  1.00  0.00     0.044 C 
ENDBRANCH   7   9
ENDBRANCH   1   7
BRANCH   4  16
ATOM     16  N   UNL     1       0.272  14.412  -1.292  1.00  0.00     0.066 N 
ATOM     17  O   UNL     1       0.387  15.566  -1.771  1.00  0.00    -0.258 OA
ATOM     18  O   UNL     1       1.043  13.977  -0.405  1.00  0.00    -0.258 OA
ENDBRANCH   4  16
BRANCH   5  19
ATOM     19  O   UNL     1      -4.172  13.781  -3.115  1.00  0.00    -0.504 OA
ATOM     20  H   UNL     1      -4.834  13.072  -3.167  1.00  0.00     0.293 HD
ENDBRANCH   5  19
BRANCH   6  21
ATOM     21  O   UNL     1      -2.183  15.459  -2.193  1.00  0.00    -0.500 OA
ATOM     22  H   UNL     1      -2.079  15.791  -1.288  1.00  0.00     0.294 HD
ENDBRANCH   6  21
TORSDOF 5
ENDMDL
MODEL 5
REMARK VINA RESULT:    -4.236      3.597      4.429
REMARK INTER + INTRA:          -6.028
REMARK INTER:                  -5.027
REMARK INTRA:                  -1.001
REMARK UNBOUND:                -0.801
REMARK SMILES Cc1ccc(C(=O)c2cc(O)c(O)c([N+](=O)[O-])c2)cc1
REMARK SMILES IDX 8 1 18 2 9 3 14 4 10 5 12 6 6 7 7 8 5 9 4 10 19 11 3 12
REMARK SMILES IDX 20 13 2 14 1 15 15 16 17 17 16 18 11 19 13 21
REMARK H PARENT 11 20 13 22
ROOT
ATOM      1  C   UNL     1      -1.771  11.538  -0.573  1.00  0.00     0.033 A 
ATOM      2  C   UNL     1      -1.505  10.266  -1.024  1.00  0.00     0.102 A 
ATOM      3  C   UNL     1      -2.103  11.812   0.732  1.00  0.00     0.063 A 
ATOM      4  C   UNL     1      -1.574   9.208  -0.118  1.00  0.00     0.315 A 
ATOM      5  C   UNL     1      -2.173  10.754   1.639  1.00  0.00     0.165 A 
ATOM      6  C   UNL     1      -1.908   9.452   1.214  1.00  0.00     0.237 A 
ENDROOT
BRANCH   1   7
ATOM      7  C   UNL     1      -1.697  12.671  -1.544  1.00  0.00     0.193 C 
ATOM      8  O   UNL     1      -2.626  12.784  -2.358  1.00  0.00    -0.289 OA
BRANCH   7   9
ATOM      9  C   UNL     1      -0.593  13.617  -1.556  1.00  0.00     0.023 A 
ATOM     10  C   UNL     1      -0.843  14.982  -1.419  1.00  0.00     0.012 A 
ATOM     11  C   UNL     1       0.716  13.159  -1.704  1.00  0.00     0.012 A 
ATOM     12  C   UNL     1       0.217  15.889  -1.431  1.00  0.00     0.004 A 
ATOM     13  C   UNL     1       1.777  14.066  -1.715  1.00  0.00     0.004 A 
ATOM     14  C   UNL     1       1.527  15.432  -1.578  1.00  0.00    -0.051 A 
ATOM     15  C   UNL     1       2.658  16.402  -1.592  1.00  0.00     0.044 C 
ENDBRANCH   7   9
ENDBRANCH   1   7
BRANCH   4  16
ATOM     16  N   UNL     1      -1.301   7.888  -0.570  1.00  0.00     0.066 N 
ATOM     17  O   UNL     1      -0.339   7.703  -1.353  1.00  0.00    -0.258 OA
ATOM     18  O   UNL     1      -2.028   6.949  -0.171  1.00  0.00    -0.258 OA
ENDBRANCH   4  16
BRANCH   5  19
ATOM     19  O   UNL     1      -2.500  11.007   2.938  1.00  0.00    -0.504 OA
ATOM     20  H   UNL     1      -3.184  11.697   2.973  1.00  0.00     0.293 HD
ENDBRANCH   5  19
BRANCH   6  21
ATOM     21  O   UNL     1      -1.979   8.426   2.111  1.00  0.00    -0.500 OA
ATOM     22  H   UNL     1      -2.905   8.263   2.348  1.00  0.00     0.294 HD
ENDBRANCH   6  21
TORSDOF 5
ENDMDL
MODEL 6
REMARK VINA RESULT:    -4.236      1.991      2.655
REMARK INTER + INTRA:          -6.028
REMARK INTER:                  -5.324
REMARK INTRA:                  -0.703
REMARK UNBOUND:                -0.801
REMARK SMILES Cc1ccc(C(=O)c2cc(O)c(O)c([N+](=O)[O-])c2)cc1
REMARK SMILES IDX 8 1 18 2 9 3 14 4 10 5 12 6 6 7 7 8 5 9 4 10 19 11 3 12
REMARK SMILES IDX 20 13 2 14 1 15 15 16 17 17 16 18 11 19 13 21
REMARK H PARENT 11 20 13 22
ROOT
ATOM      1  C   UNL     1      -2.076   8.758  -1.024  1.00  0.00     0.033 A 
ATOM      2  C   UNL     1      -2.356   7.687  -1.840  1.00  0.00     0.102 A 
ATOM      3  C   UNL     1      -1.417   8.630   0.176  1.00  0.00     0.063 A 
ATOM      4  C   UNL     1      -1.953   6.415  -1.433  1.00  0.00     0.315 A 
ATOM      5  C   UNL     1      -1.015   7.358   0.583  1.00  0.00     0.165 A 
ATOM      6  C   UNL     1      -1.283   6.250  -0.222  1.00  0.00     0.237 A 
ENDROOT
BRANCH   1   7
ATOM      7  C   UNL     1      -2.507  10.121  -1.460  1.00  0.00     0.193 C 
ATOM      8  O   UNL     1      -3.660  10.238  -1.902  1.00  0.00    -0.289 OA
BRANCH   7   9
ATOM      9  C   UNL     1      -1.632  11.279  -1.378  1.00  0.00     0.023 A 
ATOM     10  C   UNL     1      -0.882  11.666  -2.489  1.00  0.00     0.012 A 
ATOM     11  C   UNL     1      -1.541  12.003  -0.190  1.00  0.00     0.012 A 
ATOM     12  C   UNL     1      -0.043  12.777  -2.411  1.00  0.00     0.004 A 
ATOM     13  C   UNL     1      -0.702  13.115  -0.111  1.00  0.00     0.004 A 
ATOM     14  C   UNL     1       0.048  13.502  -1.222  1.00  0.00    -0.051 A 
ATOM     15  C   UNL     1       0.946  14.689  -1.138  1.00  0.00     0.044 C 
ENDBRANCH   7   9
ENDBRANCH   1   7
BRANCH   4  16
ATOM     16  N   UNL     1      -2.236   5.298  -2.267  1.00  0.00     0.066 N 
ATOM     17  O   UNL     1      -2.931   4.360  -1.808  1.00  0.00    -0.258 OA
ATOM     18  O   UNL     1      -1.783   5.284  -3.435  1.00  0.00    -0.258 OA
ENDBRANCH   4  16
BRANCH   5  19
ATOM     19  O   UNL     1      -0.360   7.211   1.769  1.00  0.00    -0.504 OA
ATOM     20  H   UNL     1       0.282   6.486   1.699  1.00  0.00     0.293 HD
ENDBRANCH   5  19
BRANCH   6  21
ATOM     21  O   UNL     1      -0.884   5.011   0.187  1.00  0.00    -0.500 OA
ATOM     22  H   UNL     1      -0.470   5.073   1.062  1.00  0.00     0.294 HD
ENDBRANCH   6  21
TORSDOF 5
ENDMDL
MODEL 7
REMARK VINA RESULT:    -4.227      3.713      6.827
REMARK INTER + INTRA:          -6.017
REMARK INTER:                  -5.042
REMARK INTRA:                  -0.974
REMARK UNBOUND:                -0.801
REMARK SMILES Cc1ccc(C(=O)c2cc(O)c(O)c([N+](=O)[O-])c2)cc1
REMARK SMILES IDX 8 1 18 2 9 3 14 4 10 5 12 6 6 7 7 8 5 9 4 10 19 11 3 12
REMARK SMILES IDX 20 13 2 14 1 15 15 16 17 17 16 18 11 19 13 21
REMARK H PARENT 11 20 13 22
ROOT
ATOM      1  C   UNL     1      -1.528  11.432  -2.193  1.00  0.00     0.033 A 
ATOM      2  C   UNL     1      -2.730  11.975  -2.584  1.00  0.00     0.102 A 
ATOM      3  C   UNL     1      -0.468  12.196  -1.766  1.00  0.00     0.063 A 
ATOM      4  C   UNL     1      -2.880  13.361  -2.544  1.00  0.00     0.315 A 
ATOM      5  C   UNL     1      -0.618  13.582  -1.726  1.00  0.00     0.165 A 
ATOM      6  C   UNL     1      -1.825  14.165  -2.115  1.00  0.00     0.237 A 
ENDROOT
BRANCH   1   7
ATOM      7  C   UNL     1      -1.367   9.947  -2.235  1.00  0.00     0.193 C 
ATOM      8  O   UNL     1      -1.576   9.383  -3.320  1.00  0.00    -0.289 OA
BRANCH   7   9
ATOM      9  C   UNL     1      -0.982   9.171  -1.068  1.00  0.00     0.023 A 
ATOM     10  C   UNL     1      -1.695   9.303   0.124  1.00  0.00     0.012 A 
ATOM     11  C   UNL     1       0.101   8.295  -1.139  1.00  0.00     0.012 A 
ATOM     12  C   UNL     1      -1.326   8.558   1.244  1.00  0.00     0.004 A 
ATOM     13  C   UNL     1       0.471   7.549  -0.019  1.00  0.00     0.004 A 
ATOM     14  C   UNL     1      -0.242   7.681   1.173  1.00  0.00    -0.051 A 
ATOM     15  C   UNL     1       0.153   6.886   2.370  1.00  0.00     0.044 C 
ENDBRANCH   7   9
ENDBRANCH   1   7
BRANCH   4  16
ATOM     16  N   UNL     1      -4.117  13.937  -2.945  1.00  0.00     0.066 N 
ATOM     17  O   UNL     1      -5.168  13.262  -2.821  1.00  0.00    -0.258 OA
ATOM     18  O   UNL     1      -4.122  15.101  -3.408  1.00  0.00    -0.258 OA
ENDBRANCH   4  16
BRANCH   5  19
ATOM     19  O   UNL     1       0.422  14.355  -1.305  1.00  0.00    -0.504 OA
ATOM     20  H   UNL     1       0.581  14.199  -0.360  1.00  0.00     0.293 HD
ENDBRANCH   5  19
BRANCH   6  21
ATOM     21  O   UNL     1      -1.959  15.523  -2.072  1.00  0.00    -0.500 OA
ATOM     22  H   UNL     1      -1.909  15.826  -1.152  1.00  0.00     0.294 HD
ENDBRANCH   6  21
TORSDOF 5
ENDMDL
MODEL 8
REMARK VINA RESULT:    -4.204      3.674      6.523
REMARK INTER + INTRA:          -5.988
REMARK INTER:                  -5.006
REMARK INTRA:                  -0.982
REMARK UNBOUND:                -0.801
REMARK SMILES Cc1ccc(C(=O)c2cc(O)c(O)c([N+](=O)[O-])c2)cc1
REMARK SMILES IDX 8 1 18 2 9 3 14 4 10 5 12 6 6 7 7 8 5 9 4 10 19 11 3 12
REMARK SMILES IDX 20 13 2 14 1 15 15 16 17 17 16 18 11 19 13 21
REMARK H PARENT 11 20 13 22
ROOT
ATOM      1  C   UNL     1      -1.828  11.660  -0.922  1.00  0.00     0.033 A 
ATOM      2  C   UNL     1      -2.976  11.932  -1.629  1.00  0.00     0.102 A 
ATOM      3  C   UNL     1      -0.798  12.562  -0.795  1.00  0.00     0.063 A 
ATOM      4  C   UNL     1      -3.102  13.178  -2.242  1.00  0.00     0.315 A 
ATOM      5  C   UNL     1      -0.924  13.808  -1.410  1.00  0.00     0.165 A 
ATOM      6  C   UNL     1      -2.077  14.117  -2.133  1.00  0.00     0.237 A 
ENDROOT
BRANCH   1   7
ATOM      7  C   UNL     1      -1.692  10.325  -0.265  1.00  0.00     0.193 C 
ATOM      8  O   UNL     1      -1.449  10.312   0.952  1.00  0.00    -0.289 OA
BRANCH   7   9
ATOM      9  C   UNL     1      -1.835   9.077  -0.997  1.00  0.00     0.023 A 
ATOM     10  C   UNL     1      -2.705   8.091  -0.532  1.00  0.00     0.012 A 
ATOM     11  C   UNL     1      -1.103   8.866  -2.165  1.00  0.00     0.012 A 
ATOM     12  C   UNL     1      -2.842   6.894  -1.235  1.00  0.00     0.004 A 
ATOM     13  C   UNL     1      -1.239   7.669  -2.869  1.00  0.00     0.004 A 
ATOM     14  C   UNL     1      -2.110   6.683  -2.404  1.00  0.00    -0.051 A 
ATOM     15  C   UNL     1      -2.255   5.403  -3.154  1.00  0.00     0.044 C 
ENDBRANCH   7   9
ENDBRANCH   1   7
BRANCH   4  16
ATOM     16  N   UNL     1      -4.284  13.474  -2.976  1.00  0.00     0.066 N 
ATOM     17  O   UNL     1      -4.686  14.661  -3.025  1.00  0.00    -0.258 OA
ATOM     18  O   UNL     1      -4.889  12.540  -3.553  1.00  0.00    -0.258 OA
ENDBRANCH   4  16
BRANCH   5  19
ATOM     19  O   UNL     1       0.086  14.716  -1.294  1.00  0.00    -0.504 OA
ATOM     20  H   UNL     1       0.058  15.123  -0.413  1.00  0.00     0.293 HD
ENDBRANCH   5  19
BRANCH   6  21
ATOM     21  O   UNL     1      -2.188  15.339  -2.729  1.00  0.00    -0.500 OA
ATOM     22  H   UNL     1      -2.057  16.037  -2.069  1.00  0.00     0.294 HD
ENDBRANCH   6  21
TORSDOF 5
ENDMDL
MODEL 9
REMARK VINA RESULT:    -4.197      3.790      7.076
REMARK INTER + INTRA:          -5.979
REMARK INTER:                  -4.990
REMARK INTRA:                  -0.989
REMARK UNBOUND:                -0.801
REMARK SMILES Cc1ccc(C(=O)c2cc(O)c(O)c([N+](=O)[O-])c2)cc1
REMARK SMILES IDX 8 1 18 2 9 3 14 4 10 5 12 6 6 7 7 8 5 9 4 10 19 11 3 12
REMARK SMILES IDX 20 13 2 14 1 15 15 16 17 17 16 18 11 19 13 21
REMARK H PARENT 11 20 13 22
ROOT
ATOM      1  C   UNL     1      -1.887  11.685  -1.016  1.00  0.00     0.033 A 
ATOM      2  C   UNL     1      -0.871  12.609  -0.954  1.00  0.00     0.102 A 
ATOM      3  C   UNL     1      -3.073  11.921  -1.669  1.00  0.00     0.063 A 
ATOM      4  C   UNL     1      -1.050  13.841  -1.584  1.00  0.00     0.315 A 
ATOM      5  C   UNL     1      -3.253  13.153  -2.298  1.00  0.00     0.165 A 
ATOM      6  C   UNL     1      -2.241  14.113  -2.256  1.00  0.00     0.237 A 
ENDROOT
BRANCH   1   7
ATOM      7  C   UNL     1      -1.695  10.365  -0.341  1.00  0.00     0.193 C 
ATOM      8  O   UNL     1      -1.406  10.380   0.865  1.00  0.00    -0.289 OA
BRANCH   7   9
ATOM      9  C   UNL     1      -1.835   9.101  -1.046  1.00  0.00     0.023 A 
ATOM     10  C   UNL     1      -1.106   8.869  -2.213  1.00  0.00     0.012 A 
ATOM     11  C   UNL     1      -2.698   8.121  -0.557  1.00  0.00     0.012 A 
ATOM     12  C   UNL     1      -1.240   7.656  -2.889  1.00  0.00     0.004 A 
ATOM     13  C   UNL     1      -2.833   6.908  -1.232  1.00  0.00     0.004 A 
ATOM     14  C   UNL     1      -2.104   6.675  -2.399  1.00  0.00    -0.051 A 
ATOM     15  C   UNL     1      -2.248   5.380  -3.123  1.00  0.00     0.044 C 
ENDBRANCH   7   9
ENDBRANCH   1   7
BRANCH   4  16
ATOM     16  N   UNL     1      -0.008  14.807  -1.529  1.00  0.00     0.066 N 
ATOM     17  O   UNL     1      -0.307  16.024  -1.579  1.00  0.00    -0.258 OA
ATOM     18  O   UNL     1       1.178  14.413  -1.432  1.00  0.00    -0.258 OA
ENDBRANCH   4  16
BRANCH   5  19
ATOM     19  O   UNL     1      -4.422  13.406  -2.952  1.00  0.00    -0.504 OA
ATOM     20  H   UNL     1      -5.144  13.490  -2.307  1.00  0.00     0.293 HD
ENDBRANCH   5  19
BRANCH   6  21
ATOM     21  O   UNL     1      -2.429  15.315  -2.876  1.00  0.00    -0.500 OA
ATOM     22  H   UNL     1      -1.573  15.747  -3.016  1.00  0.00     0.294 HD
ENDBRANCH   6  21
TORSDOF 5
ENDMDL
