MODEL 1
REMARK VINA RESULT:    -6.258      0.000      0.000
REMARK INTER + INTRA:          -8.202
REMARK INTER:                  -7.722
REMARK INTRA:                  -0.480
REMARK UNBOUND:                -0.480
REMARK SMILES Cc1ccc(C(=O)c2cc(O)c(O)c([N+](=O)[O-])c2)cc1
REMARK SMILES IDX 8 1 18 2 9 3 14 4 10 5 12 6 6 7 7 8 5 9 4 10 19 11 3 12
REMARK SMILES IDX 20 13 2 14 1 15 15 16 17 17 16 18 11 19 13 21
REMARK H PARENT 11 20 13 22
ROOT
ATOM      1  C   UNL     1       5.849   1.921  -4.395  1.00  0.00     0.033 A 
ATOM      2  C   UNL     1       5.758   0.550  -4.464  1.00  0.00     0.102 A 
ATOM      3  C   UNL     1       5.384   2.648  -3.325  1.00  0.00     0.063 A 
ATOM      4  C   UNL     1       5.169  -0.133  -3.400  1.00  0.00     0.315 A 
ATOM      5  C   UNL     1       4.793   1.964  -2.261  1.00  0.00     0.165 A 
ATOM      6  C   UNL     1       4.686   0.573  -2.299  1.00  0.00     0.237 A 
ENDROOT
BRANCH   1   7
ATOM      7  C   UNL     1       6.481   2.653  -5.534  1.00  0.00     0.193 C 
ATOM      8  O   UNL     1       5.790   3.503  -6.118  1.00  0.00    -0.289 OA
BRANCH   7   9
ATOM      9  C   UNL     1       7.847   2.401  -5.962  1.00  0.00     0.023 A 
ATOM     10  C   UNL     1       8.386   3.114  -7.033  1.00  0.00     0.012 A 
ATOM     11  C   UNL     1       8.620   1.446  -5.301  1.00  0.00     0.012 A 
ATOM     12  C   UNL     1       9.697   2.872  -7.442  1.00  0.00     0.004 A 
ATOM     13  C   UNL     1       9.931   1.203  -5.710  1.00  0.00     0.004 A 
ATOM     14  C   UNL     1      10.471   1.916  -6.781  1.00  0.00    -0.051 A 
ATOM     15  C   UNL     1      11.871   1.657  -7.220  1.00  0.00     0.044 C 
ENDBRANCH   7   9
ENDBRANCH   1   7
BRANCH   4  16
ATOM     16  N   UNL     1       5.068  -1.550  -3.457  1.00  0.00     0.066 N 
ATOM     17  O   UNL     1       5.985  -2.201  -4.013  1.00  0.00    -0.258 OA
ATOM     18  O   UNL     1       4.067  -2.107  -2.949  1.00  0.00    -0.258 OA
ENDBRANCH   4  16
BRANCH   5  19
ATOM     19  O   UNL     1       4.326   2.668  -1.192  1.00  0.00    -0.504 OA
ATOM     20  H   UNL     1       4.360   2.111  -0.396  1.00  0.00     0.293 HD
ENDBRANCH   5  19
BRANCH   6  21
ATOM     21  O   UNL     1       4.107  -0.084  -1.253  1.00  0.00    -0.500 OA
ATOM     22  H   UNL     1       4.427   0.289  -0.416  1.00  0.00     0.294 HD
ENDBRANCH   6  21
TORSDOF 5
ENDMDL
MODEL 2
REMARK VINA RESULT:    -6.211      1.754      3.498
REMARK INTER + INTRA:          -8.144
REMARK INTER:                  -7.713
REMARK INTRA:                  -0.431
REMARK UNBOUND:                -0.480
REMARK SMILES Cc1ccc(C(=O)c2cc(O)c(O)c([N+](=O)[O-])c2)cc1
REMARK SMILES IDX 8 1 18 2 9 3 14 4 10 5 12 6 6 7 7 8 5 9 4 10 19 11 3 12
REMARK SMILES IDX 20 13 2 14 1 15 15 16 17 17 16 18 11 19 13 21
REMARK H PARENT 11 20 13 22
ROOT
ATOM      1  C   UNL     1       7.276   0.027  -3.339  1.00  0.00     0.033 A 
ATOM      2  C   UNL     1       6.807   1.245  -2.902  1.00  0.00     0.102 A 
ATOM      3  C   UNL     1       6.495  -1.103  -3.377  1.00  0.00     0.063 A 
ATOM      4  C   UNL     1       5.481   1.336  -2.480  1.00  0.00     0.315 A 
ATOM      5  C   UNL     1       5.168  -1.012  -2.954  1.00  0.00     0.165 A 
ATOM      6  C   UNL     1       4.661   0.208  -2.506  1.00  0.00     0.237 A 
ENDROOT
BRANCH   1   7
ATOM      7  C   UNL     1       8.696  -0.071  -3.791  1.00  0.00     0.193 C 
ATOM      8  O   UNL     1       9.422  -0.894  -3.213  1.00  0.00    -0.289 OA
BRANCH   7   9
ATOM      9  C   UNL     1       9.232   0.752  -4.863  1.00  0.00     0.023 A 
ATOM     10  C   UNL     1      10.566   0.617  -5.247  1.00  0.00     0.012 A 
ATOM     11  C   UNL     1       8.412   1.678  -5.509  1.00  0.00     0.012 A 
ATOM     12  C   UNL     1      11.080   1.406  -6.275  1.00  0.00     0.004 A 
ATOM     13  C   UNL     1       8.925   2.468  -6.538  1.00  0.00     0.004 A 
ATOM     14  C   UNL     1      10.260   2.332  -6.921  1.00  0.00    -0.051 A 
ATOM     15  C   UNL     1      10.810   3.177  -8.019  1.00  0.00     0.044 C 
ENDBRANCH   7   9
ENDBRANCH   1   7
BRANCH   4  16
ATOM     16  N   UNL     1       4.982   2.588  -2.026  1.00  0.00     0.066 N 
ATOM     17  O   UNL     1       4.292   2.622  -0.979  1.00  0.00    -0.258 OA
ATOM     18  O   UNL     1       5.247   3.621  -2.686  1.00  0.00    -0.258 OA
ENDBRANCH   4  16
BRANCH   5  19
ATOM     19  O   UNL     1       4.379  -2.122  -2.985  1.00  0.00    -0.504 OA
ATOM     20  H   UNL     1       4.036  -2.253  -3.884  1.00  0.00     0.293 HD
ENDBRANCH   5  19
BRANCH   6  21
ATOM     21  O   UNL     1       3.362   0.285  -2.095  1.00  0.00    -0.500 OA
ATOM     22  H   UNL     1       2.803   0.573  -2.834  1.00  0.00     0.294 HD
ENDBRANCH   6  21
TORSDOF 5
ENDMDL
MODEL 3
REMARK VINA RESULT:    -5.666      1.804      2.724
REMARK INTER + INTRA:          -7.471
REMARK INTER:                  -6.556
REMARK INTRA:                  -0.915
REMARK UNBOUND:                -0.480
REMARK SMILES Cc1ccc(C(=O)c2cc(O)c(O)c([N+](=O)[O-])c2)cc1
REMARK SMILES IDX 8 1 18 2 9 3 14 4 10 5 12 6 6 7 7 8 5 9 4 10 19 11 3 12
REMARK SMILES IDX 20 13 2 14 1 15 15 16 17 17 16 18 11 19 13 21
REMARK H PARENT 11 20 13 22
ROOT
ATOM      1  C   UNL     1       8.225   0.343  -4.154  1.00  0.00     0.033 A 
ATOM      2  C   UNL     1       7.552  -0.781  -3.731  1.00  0.00     0.102 A 
ATOM      3  C   UNL     1       7.649   1.590  -4.185  1.00  0.00     0.063 A 
ATOM      4  C   UNL     1       6.227  -0.647  -3.315  1.00  0.00     0.315 A 
ATOM      5  C   UNL     1       6.323   1.724  -3.770  1.00  0.00     0.165 A 
ATOM      6  C   UNL     1       5.613   0.604  -3.334  1.00  0.00     0.237 A 
ENDROOT
BRANCH   1   7
ATOM      7  C   UNL     1       9.644   0.200  -4.599  1.00  0.00     0.193 C 
ATOM      8  O   UNL     1      10.344  -0.637  -4.009  1.00  0.00    -0.289 OA
BRANCH   7   9
ATOM      9  C   UNL     1      10.206   0.997  -5.678  1.00  0.00     0.023 A 
ATOM     10  C   UNL     1       9.916   0.678  -7.005  1.00  0.00     0.012 A 
ATOM     11  C   UNL     1      11.035   2.080  -5.387  1.00  0.00     0.012 A 
ATOM     12  C   UNL     1      10.455   1.442  -8.039  1.00  0.00     0.004 A 
ATOM     13  C   UNL     1      11.574   2.845  -6.421  1.00  0.00     0.004 A 
ATOM     14  C   UNL     1      11.284   2.526  -7.748  1.00  0.00    -0.051 A 
ATOM     15  C   UNL     1      11.861   3.342  -8.854  1.00  0.00     0.044 C 
ENDBRANCH   7   9
ENDBRANCH   1   7
BRANCH   4  16
ATOM     16  N   UNL     1       5.519  -1.799  -2.876  1.00  0.00     0.066 N 
ATOM     17  O   UNL     1       4.281  -1.861  -3.073  1.00  0.00    -0.258 OA
ATOM     18  O   UNL     1       6.151  -2.718  -2.305  1.00  0.00    -0.258 OA
ENDBRANCH   4  16
BRANCH   5  19
ATOM     19  O   UNL     1       5.736   2.953  -3.793  1.00  0.00    -0.504 OA
ATOM     20  H   UNL     1       5.271   3.075  -4.637  1.00  0.00     0.293 HD
ENDBRANCH   5  19
BRANCH   6  21
ATOM     21  O   UNL     1       4.317   0.748  -2.930  1.00  0.00    -0.500 OA
ATOM     22  H   UNL     1       3.733   0.759  -3.704  1.00  0.00     0.294 HD
ENDBRANCH   6  21
TORSDOF 5
ENDMDL
MODEL 4
REMARK VINA RESULT:    -5.656      1.616      2.931
REMARK INTER + INTRA:          -7.460
REMARK INTER:                  -6.533
REMARK INTRA:                  -0.927
REMARK UNBOUND:                -0.480
REMARK SMILES Cc1ccc(C(=O)c2cc(O)c(O)c([N+](=O)[O-])c2)cc1
REMARK SMILES IDX 8 1 18 2 9 3 14 4 10 5 12 6 6 7 7 8 5 9 4 10 19 11 3 12
REMARK SMILES IDX 20 13 2 14 1 15 15 16 17 17 16 18 11 19 13 21
REMARK H PARENT 11 20 13 22
ROOT
ATOM      1  C   UNL     1       6.854   2.208  -5.110  1.00  0.00     0.033 A 
ATOM      2  C   UNL     1       5.970   2.853  -4.278  1.00  0.00     0.102 A 
ATOM      3  C   UNL     1       7.211   0.891  -4.943  1.00  0.00     0.063 A 
ATOM      4  C   UNL     1       5.410   2.140  -3.218  1.00  0.00     0.315 A 
ATOM      5  C   UNL     1       6.652   0.177  -3.883  1.00  0.00     0.165 A 
ATOM      6  C   UNL     1       5.750   0.802  -3.020  1.00  0.00     0.237 A 
ENDROOT
BRANCH   1   7
ATOM      7  C   UNL     1       7.454   2.971  -6.246  1.00  0.00     0.193 C 
ATOM      8  O   UNL     1       6.727   3.792  -6.826  1.00  0.00    -0.289 OA
BRANCH   7   9
ATOM      9  C   UNL     1       8.830   2.780  -6.673  1.00  0.00     0.023 A 
ATOM     10  C   UNL     1       9.107   2.040  -7.823  1.00  0.00     0.012 A 
ATOM     11  C   UNL     1       9.874   3.336  -5.934  1.00  0.00     0.012 A 
ATOM     12  C   UNL     1      10.428   1.856  -8.233  1.00  0.00     0.004 A 
ATOM     13  C   UNL     1      11.196   3.154  -6.344  1.00  0.00     0.004 A 
ATOM     14  C   UNL     1      11.472   2.413  -7.494  1.00  0.00    -0.051 A 
ATOM     15  C   UNL     1      12.884   2.216  -7.932  1.00  0.00     0.044 C 
ENDBRANCH   7   9
ENDBRANCH   1   7
BRANCH   4  16
ATOM     16  N   UNL     1       4.494   2.794  -2.349  1.00  0.00     0.066 N 
ATOM     17  O   UNL     1       3.743   3.683  -2.818  1.00  0.00    -0.258 OA
ATOM     18  O   UNL     1       4.462   2.462  -1.141  1.00  0.00    -0.258 OA
ENDBRANCH   4  16
BRANCH   5  19
ATOM     19  O   UNL     1       6.993  -1.129  -3.702  1.00  0.00    -0.504 OA
ATOM     20  H   UNL     1       6.668  -1.657  -4.450  1.00  0.00     0.293 HD
ENDBRANCH   5  19
BRANCH   6  21
ATOM     21  O   UNL     1       5.209   0.094  -1.986  1.00  0.00    -0.500 OA
ATOM     22  H   UNL     1       4.935  -0.782  -2.300  1.00  0.00     0.294 HD
ENDBRANCH   6  21
TORSDOF 5
ENDMDL
MODEL 5
REMARK VINA RESULT:    -5.463      2.015      3.544
REMARK INTER + INTRA:          -7.221
REMARK INTER:                  -6.367
REMARK INTRA:                  -0.855
REMARK UNBOUND:                -0.480
REMARK SMILES Cc1ccc(C(=O)c2cc(O)c(O)c([N+](=O)[O-])c2)cc1
REMARK SMILES IDX 8 1 18 2 9 3 14 4 10 5 12 6 6 7 7 8 5 9 4 10 19 11 3 12
REMARK SMILES IDX 20 13 2 14 1 15 15 16 17 17 16 18 11 19 13 21
REMARK H PARENT 11 20 13 22
ROOT
ATOM      1  C   UNL     1       7.934   0.414  -4.076  1.00  0.00     0.033 A 
ATOM      2  C   UNL     1       7.333   1.617  -4.368  1.00  0.00     0.102 A 
ATOM      3  C   UNL     1       7.293  -0.594  -3.396  1.00  0.00     0.063 A 
ATOM      4  C   UNL     1       6.017   1.822  -3.956  1.00  0.00     0.315 A 
ATOM      5  C   UNL     1       5.976  -0.388  -2.983  1.00  0.00     0.165 A 
ATOM      6  C   UNL     1       5.338   0.820  -3.264  1.00  0.00     0.237 A 
ENDROOT
BRANCH   1   7
ATOM      7  C   UNL     1       9.344   0.194  -4.517  1.00  0.00     0.193 C 
ATOM      8  O   UNL     1       9.999  -0.672  -3.917  1.00  0.00    -0.289 OA
BRANCH   7   9
ATOM      9  C   UNL     1       9.949   0.949  -5.602  1.00  0.00     0.023 A 
ATOM     10  C   UNL     1      10.839   1.986  -5.319  1.00  0.00     0.012 A 
ATOM     11  C   UNL     1       9.640   0.638  -6.926  1.00  0.00     0.012 A 
ATOM     12  C   UNL     1      11.419   2.710  -6.360  1.00  0.00     0.004 A 
ATOM     13  C   UNL     1      10.220   1.362  -7.968  1.00  0.00     0.004 A 
ATOM     14  C   UNL     1      11.110   2.399  -7.685  1.00  0.00    -0.051 A 
ATOM     15  C   UNL     1      11.730   3.174  -8.797  1.00  0.00     0.044 C 
ENDBRANCH   7   9
ENDBRANCH   1   7
BRANCH   4  16
ATOM     16  N   UNL     1       5.383   3.061  -4.251  1.00  0.00     0.066 N 
ATOM     17  O   UNL     1       4.563   3.533  -3.427  1.00  0.00    -0.258 OA
ATOM     18  O   UNL     1       5.662   3.643  -5.325  1.00  0.00    -0.258 OA
ENDBRANCH   4  16
BRANCH   5  19
ATOM     19  O   UNL     1       5.325  -1.377  -2.308  1.00  0.00    -0.504 OA
ATOM     20  H   UNL     1       5.965  -2.047  -2.015  1.00  0.00     0.293 HD
ENDBRANCH   5  19
BRANCH   6  21
ATOM     21  O   UNL     1       4.049   1.009  -2.856  1.00  0.00    -0.500 OA
ATOM     22  H   UNL     1       3.694   0.179  -2.503  1.00  0.00     0.294 HD
ENDBRANCH   6  21
TORSDOF 5
ENDMDL
MODEL 6
REMARK VINA RESULT:    -5.438      1.676      3.228
REMARK INTER + INTRA:          -7.189
REMARK INTER:                  -6.403
REMARK INTRA:                  -0.786
REMARK UNBOUND:                -0.480
REMARK SMILES Cc1ccc(C(=O)c2cc(O)c(O)c([N+](=O)[O-])c2)cc1
REMARK SMILES IDX 8 1 18 2 9 3 14 4 10 5 12 6 6 7 7 8 5 9 4 10 19 11 3 12
REMARK SMILES IDX 20 13 2 14 1 15 15 16 17 17 16 18 11 19 13 21
REMARK H PARENT 11 20 13 22
ROOT
ATOM      1  C   UNL     1       7.749   1.382  -4.611  1.00  0.00     0.033 A 
ATOM      2  C   UNL     1       7.056   1.002  -3.485  1.00  0.00     0.102 A 
ATOM      3  C   UNL     1       7.302   2.359  -5.468  1.00  0.00     0.063 A 
ATOM      4  C   UNL     1       5.847   1.635  -3.201  1.00  0.00     0.315 A 
ATOM      5  C   UNL     1       6.092   2.993  -5.184  1.00  0.00     0.165 A 
ATOM      6  C   UNL     1       5.364   2.631  -4.049  1.00  0.00     0.237 A 
ENDROOT
BRANCH   1   7
ATOM      7  C   UNL     1       9.045   0.704  -4.916  1.00  0.00     0.193 C 
ATOM      8  O   UNL     1       9.384  -0.233  -4.177  1.00  0.00    -0.289 OA
BRANCH   7   9
ATOM      9  C   UNL     1       9.893   1.104  -6.027  1.00  0.00     0.023 A 
ATOM     10  C   UNL     1       9.758   0.480  -7.267  1.00  0.00     0.012 A 
ATOM     11  C   UNL     1      10.840   2.113  -5.854  1.00  0.00     0.012 A 
ATOM     12  C   UNL     1      10.571   0.865  -8.333  1.00  0.00     0.004 A 
ATOM     13  C   UNL     1      11.653   2.499  -6.920  1.00  0.00     0.004 A 
ATOM     14  C   UNL     1      11.518   1.874  -8.160  1.00  0.00    -0.051 A 
ATOM     15  C   UNL     1      12.388   2.284  -9.300  1.00  0.00     0.044 C 
ENDBRANCH   7   9
ENDBRANCH   1   7
BRANCH   4  16
ATOM     16  N   UNL     1       5.119   1.253  -2.040  1.00  0.00     0.066 N 
ATOM     17  O   UNL     1       4.619   2.147  -1.316  1.00  0.00    -0.258 OA
ATOM     18  O   UNL     1       4.998   0.034  -1.776  1.00  0.00    -0.258 OA
ENDBRANCH   4  16
BRANCH   5  19
ATOM     19  O   UNL     1       5.633   3.964  -6.022  1.00  0.00    -0.504 OA
ATOM     20  H   UNL     1       4.875   4.415  -5.614  1.00  0.00     0.293 HD
ENDBRANCH   5  19
BRANCH   6  21
ATOM     21  O   UNL     1       4.182   3.258  -3.782  1.00  0.00    -0.500 OA
ATOM     22  H   UNL     1       3.556   2.625  -3.397  1.00  0.00     0.294 HD
ENDBRANCH   6  21
TORSDOF 5
ENDMDL
MODEL 7
REMARK VINA RESULT:    -5.416      1.785      3.013
REMARK INTER + INTRA:          -7.163
REMARK INTER:                  -6.395
REMARK INTRA:                  -0.768
REMARK UNBOUND:                -0.480
REMARK SMILES Cc1ccc(C(=O)c2cc(O)c(O)c([N+](=O)[O-])c2)cc1
REMARK SMILES IDX 8 1 18 2 9 3 14 4 10 5 12 6 6 7 7 8 5 9 4 10 19 11 3 12
REMARK SMILES IDX 20 13 2 14 1 15 15 16 17 17 16 18 11 19 13 21
REMARK H PARENT 11 20 13 22
ROOT
ATOM      1  C   UNL     1       7.898   1.244  -5.009  1.00  0.00     0.033 A 
ATOM      2  C   UNL     1       6.595   0.987  -4.650  1.00  0.00     0.102 A 
ATOM      3  C   UNL     1       8.957   0.490  -4.563  1.00  0.00     0.063 A 
ATOM      4  C   UNL     1       6.337  -0.086  -3.798  1.00  0.00     0.315 A 
ATOM      5  C   UNL     1       8.699  -0.583  -3.709  1.00  0.00     0.165 A 
ATOM      6  C   UNL     1       7.388  -0.872  -3.327  1.00  0.00     0.237 A 
ENDROOT
BRANCH   1   7
ATOM      7  C   UNL     1       8.174   2.394  -5.922  1.00  0.00     0.193 C 
ATOM      8  O   UNL     1       7.230   3.156  -6.179  1.00  0.00    -0.289 OA
BRANCH   7   9
ATOM      9  C   UNL     1       9.487   2.633  -6.499  1.00  0.00     0.023 A 
ATOM     10  C   UNL     1       9.855   1.996  -7.684  1.00  0.00     0.012 A 
ATOM     11  C   UNL     1      10.379   3.500  -5.867  1.00  0.00     0.012 A 
ATOM     12  C   UNL     1      11.115   2.226  -8.237  1.00  0.00     0.004 A 
ATOM     13  C   UNL     1      11.640   3.730  -6.420  1.00  0.00     0.004 A 
ATOM     14  C   UNL     1      12.007   3.093  -7.605  1.00  0.00    -0.051 A 
ATOM     15  C   UNL     1      13.354   3.337  -8.196  1.00  0.00     0.044 C 
ENDBRANCH   7   9
ENDBRANCH   1   7
BRANCH   4  16
ATOM     16  N   UNL     1       4.995  -0.364  -3.419  1.00  0.00     0.066 N 
ATOM     17  O   UNL     1       4.292   0.564  -2.951  1.00  0.00    -0.258 OA
ATOM     18  O   UNL     1       4.553  -1.528  -3.564  1.00  0.00    -0.258 OA
ENDBRANCH   4  16
BRANCH   5  19
ATOM     19  O   UNL     1       9.736  -1.342  -3.257  1.00  0.00    -0.504 OA
ATOM     20  H   UNL     1      10.034  -1.007  -2.396  1.00  0.00     0.293 HD
ENDBRANCH   5  19
BRANCH   6  21
ATOM     21  O   UNL     1       7.149  -1.924  -2.492  1.00  0.00    -0.500 OA
ATOM     22  H   UNL     1       6.216  -1.925  -2.228  1.00  0.00     0.294 HD
ENDBRANCH   6  21
TORSDOF 5
ENDMDL
MODEL 8
REMARK VINA RESULT:    -5.374      2.509      4.021
REMARK INTER + INTRA:          -7.112
REMARK INTER:                  -6.100
REMARK INTRA:                  -1.012
REMARK UNBOUND:                -0.480
REMARK SMILES Cc1ccc(C(=O)c2cc(O)c(O)c([N+](=O)[O-])c2)cc1
REMARK SMILES IDX 8 1 18 2 9 3 14 4 10 5 12 6 6 7 7 8 5 9 4 10 19 11 3 12
REMARK SMILES IDX 20 13 2 14 1 15 15 16 17 17 16 18 11 19 13 21
REMARK H PARENT 11 20 13 22
ROOT
ATOM      1  C   UNL     1       8.582   2.134  -5.977  1.00  0.00     0.033 A 
ATOM      2  C   UNL     1       8.001   1.441  -4.941  1.00  0.00     0.102 A 
ATOM      3  C   UNL     1       7.946   3.156  -6.641  1.00  0.00     0.063 A 
ATOM      4  C   UNL     1       6.709   1.790  -4.546  1.00  0.00     0.315 A 
ATOM      5  C   UNL     1       6.654   3.504  -6.248  1.00  0.00     0.165 A 
ATOM      6  C   UNL     1       6.035   2.821  -5.199  1.00  0.00     0.237 A 
ENDROOT
BRANCH   1   7
ATOM      7  C   UNL     1       9.966   1.761  -6.399  1.00  0.00     0.193 C 
ATOM      8  O   UNL     1      10.862   1.836  -5.544  1.00  0.00    -0.289 OA
BRANCH   7   9
ATOM      9  C   UNL     1      10.277   1.323  -7.750  1.00  0.00     0.023 A 
ATOM     10  C   UNL     1       9.589   0.246  -8.310  1.00  0.00     0.012 A 
ATOM     11  C   UNL     1      11.263   1.979  -8.487  1.00  0.00     0.012 A 
ATOM     12  C   UNL     1       9.888  -0.173  -9.606  1.00  0.00     0.004 A 
ATOM     13  C   UNL     1      11.562   1.560  -9.784  1.00  0.00     0.004 A 
ATOM     14  C   UNL     1      10.874   0.483 -10.344  1.00  0.00    -0.051 A 
ATOM     15  C   UNL     1      11.194   0.034 -11.729  1.00  0.00     0.044 C 
ENDBRANCH   7   9
ENDBRANCH   1   7
BRANCH   4  16
ATOM     16  N   UNL     1       6.095   1.082  -3.477  1.00  0.00     0.066 N 
ATOM     17  O   UNL     1       6.772   0.829  -2.451  1.00  0.00    -0.258 OA
ATOM     18  O   UNL     1       4.897   0.733  -3.590  1.00  0.00    -0.258 OA
ENDBRANCH   4  16
BRANCH   5  19
ATOM     19  O   UNL     1       6.007   4.514  -6.894  1.00  0.00    -0.504 OA
ATOM     20  H   UNL     1       5.088   4.565  -6.583  1.00  0.00     0.293 HD
ENDBRANCH   5  19
BRANCH   6  21
ATOM     21  O   UNL     1       4.771   3.172  -4.823  1.00  0.00    -0.500 OA
ATOM     22  H   UNL     1       4.184   2.404  -4.899  1.00  0.00     0.294 HD
ENDBRANCH   6  21
TORSDOF 5
ENDMDL
MODEL 9
REMARK VINA RESULT:    -5.368      2.753      4.198
REMARK INTER + INTRA:          -7.104
REMARK INTER:                  -6.099
REMARK INTRA:                  -1.005
REMARK UNBOUND:                -0.480
REMARK SMILES Cc1ccc(C(=O)c2cc(O)c(O)c([N+](=O)[O-])c2)cc1
REMARK SMILES IDX 8 1 18 2 9 3 14 4 10 5 12 6 6 7 7 8 5 9 4 10 19 11 3 12
REMARK SMILES IDX 20 13 2 14 1 15 15 16 17 17 16 18 11 19 13 21
REMARK H PARENT 11 20 13 22
ROOT
ATOM      1  C   UNL     1       9.277   1.250  -5.438  1.00  0.00     0.033 A 
ATOM      2  C   UNL     1       7.979   1.364  -4.998  1.00  0.00     0.102 A 
ATOM      3  C   UNL     1      10.146   0.298  -4.961  1.00  0.00     0.063 A 
ATOM      4  C   UNL     1       7.524   0.475  -4.025  1.00  0.00     0.315 A 
ATOM      5  C   UNL     1       9.692  -0.592  -3.987  1.00  0.00     0.165 A 
ATOM      6  C   UNL     1       8.380  -0.504  -3.519  1.00  0.00     0.237 A 
ENDROOT
BRANCH   1   7
ATOM      7  C   UNL     1       9.765   2.203  -6.480  1.00  0.00     0.193 C 
ATOM      8  O   UNL     1       9.158   2.222  -7.562  1.00  0.00    -0.289 OA
BRANCH   7   9
ATOM      9  C   UNL     1      10.902   3.083  -6.262  1.00  0.00     0.023 A 
ATOM     10  C   UNL     1      10.916   3.944  -5.164  1.00  0.00     0.012 A 
ATOM     11  C   UNL     1      11.978   3.066  -7.148  1.00  0.00     0.012 A 
ATOM     12  C   UNL     1      12.006   4.788  -4.955  1.00  0.00     0.004 A 
ATOM     13  C   UNL     1      13.069   3.910  -6.939  1.00  0.00     0.004 A 
ATOM     14  C   UNL     1      13.084   4.771  -5.841  1.00  0.00    -0.051 A 
ATOM     15  C   UNL     1      14.248   5.674  -5.617  1.00  0.00     0.044 C 
ENDBRANCH   7   9
ENDBRANCH   1   7
BRANCH   4  16
ATOM     16  N   UNL     1       6.185   0.580  -3.560  1.00  0.00     0.066 N 
ATOM     17  O   UNL     1       5.965   0.520  -2.326  1.00  0.00    -0.258 OA
ATOM     18  O   UNL     1       5.263   0.732  -4.396  1.00  0.00    -0.258 OA
ENDBRANCH   4  16
BRANCH   5  19
ATOM     19  O   UNL     1      10.539  -1.543  -3.502  1.00  0.00    -0.504 OA
ATOM     20  H   UNL     1      11.456  -1.231  -3.578  1.00  0.00     0.293 HD
ENDBRANCH   5  19
BRANCH   6  21
ATOM     21  O   UNL     1       7.947  -1.380  -2.567  1.00  0.00    -0.500 OA
ATOM     22  H   UNL     1       8.659  -1.549  -1.931  1.00  0.00     0.294 HD
ENDBRANCH   6  21
TORSDOF 5
ENDMDL
