MODEL 1
REMARK VINA RESULT:    -5.104      0.000      0.000
REMARK INTER + INTRA:          -7.038
REMARK INTER:                  -6.297
REMARK INTRA:                  -0.741
REMARK UNBOUND:                -0.741
REMARK SMILES Cc1ccc(C(=O)c2cc(O)c(O)c([N+](=O)[O-])c2)cc1
REMARK SMILES IDX 8 1 18 2 9 3 14 4 10 5 12 6 6 7 7 8 5 9 4 10 19 11 3 12
REMARK SMILES IDX 20 13 2 14 1 15 15 16 17 17 16 18 11 19 13 21
REMARK H PARENT 11 20 13 22
ROOT
ATOM      1  C   UNL     1       4.247   1.835   6.610  1.00  0.00     0.033 A 
ATOM      2  C   UNL     1       4.847   0.932   5.763  1.00  0.00     0.102 A 
ATOM      3  C   UNL     1       3.090   2.504   6.289  1.00  0.00     0.063 A 
ATOM      4  C   UNL     1       4.256   0.684   4.525  1.00  0.00     0.315 A 
ATOM      5  C   UNL     1       2.498   2.256   5.050  1.00  0.00     0.165 A 
ATOM      6  C   UNL     1       3.081   1.345   4.168  1.00  0.00     0.237 A 
ENDROOT
BRANCH   1   7
ATOM      7  C   UNL     1       4.880   2.101   7.937  1.00  0.00     0.193 C 
ATOM      8  O   UNL     1       4.127   2.379   8.881  1.00  0.00    -0.289 OA
BRANCH   7   9
ATOM      9  C   UNL     1       6.319   2.043   8.139  1.00  0.00     0.023 A 
ATOM     10  C   UNL     1       7.076   3.215   8.109  1.00  0.00     0.012 A 
ATOM     11  C   UNL     1       6.943   0.816   8.364  1.00  0.00     0.012 A 
ATOM     12  C   UNL     1       8.456   3.158   8.303  1.00  0.00     0.004 A 
ATOM     13  C   UNL     1       8.323   0.759   8.559  1.00  0.00     0.004 A 
ATOM     14  C   UNL     1       9.080   1.931   8.529  1.00  0.00    -0.051 A 
ATOM     15  C   UNL     1      10.555   1.871   8.735  1.00  0.00     0.044 C 
ENDBRANCH   7   9
ENDBRANCH   1   7
BRANCH   4  16
ATOM     16  N   UNL     1       4.865  -0.247   3.639  1.00  0.00     0.066 N 
ATOM     17  O   UNL     1       5.512  -1.208   4.121  1.00  0.00    -0.258 OA
ATOM     18  O   UNL     1       4.736  -0.081   2.404  1.00  0.00    -0.258 OA
ENDBRANCH   4  16
BRANCH   5  19
ATOM     19  O   UNL     1       1.350   2.909   4.714  1.00  0.00    -0.504 OA
ATOM     20  H   UNL     1       1.044   3.438   5.470  1.00  0.00     0.293 HD
ENDBRANCH   5  19
BRANCH   6  21
ATOM     21  O   UNL     1       2.493   1.111   2.959  1.00  0.00    -0.500 OA
ATOM     22  H   UNL     1       2.941   0.374   2.515  1.00  0.00     0.294 HD
ENDBRANCH   6  21
TORSDOF 5
ENDMDL
MODEL 2
REMARK VINA RESULT:    -5.096      1.993      3.543
REMARK INTER + INTRA:          -7.028
REMARK INTER:                  -6.291
REMARK INTRA:                  -0.736
REMARK UNBOUND:                -0.741
REMARK SMILES Cc1ccc(C(=O)c2cc(O)c(O)c([N+](=O)[O-])c2)cc1
REMARK SMILES IDX 8 1 18 2 9 3 14 4 10 5 12 6 6 7 7 8 5 9 4 10 19 11 3 12
REMARK SMILES IDX 20 13 2 14 1 15 15 16 17 17 16 18 11 19 13 21
REMARK H PARENT 11 20 13 22
ROOT
ATOM      1  C   UNL     1       5.612   1.705   5.457  1.00  0.00     0.033 A 
ATOM      2  C   UNL     1       4.508   2.480   5.727  1.00  0.00     0.102 A 
ATOM      3  C   UNL     1       5.650   0.791   4.431  1.00  0.00     0.063 A 
ATOM      4  C   UNL     1       3.377   2.332   4.924  1.00  0.00     0.315 A 
ATOM      5  C   UNL     1       4.519   0.643   3.628  1.00  0.00     0.165 A 
ATOM      6  C   UNL     1       3.382   1.414   3.874  1.00  0.00     0.237 A 
ENDROOT
BRANCH   1   7
ATOM      7  C   UNL     1       6.823   1.863   6.317  1.00  0.00     0.193 C 
ATOM      8  O   UNL     1       7.927   1.670   5.786  1.00  0.00    -0.289 OA
BRANCH   7   9
ATOM      9  C   UNL     1       6.739   2.227   7.723  1.00  0.00     0.023 A 
ATOM     10  C   UNL     1       6.792   1.238   8.704  1.00  0.00     0.012 A 
ATOM     11  C   UNL     1       6.606   3.566   8.089  1.00  0.00     0.012 A 
ATOM     12  C   UNL     1       6.712   1.587  10.052  1.00  0.00     0.004 A 
ATOM     13  C   UNL     1       6.526   3.917   9.438  1.00  0.00     0.004 A 
ATOM     14  C   UNL     1       6.579   2.927  10.419  1.00  0.00    -0.051 A 
ATOM     15  C   UNL     1       6.492   3.300  11.860  1.00  0.00     0.044 C 
ENDBRANCH   7   9
ENDBRANCH   1   7
BRANCH   4  16
ATOM     16  N   UNL     1       2.228   3.126   5.190  1.00  0.00     0.066 N 
ATOM     17  O   UNL     1       2.382   4.264   5.695  1.00  0.00    -0.258 OA
ATOM     18  O   UNL     1       1.096   2.666   4.912  1.00  0.00    -0.258 OA
ENDBRANCH   4  16
BRANCH   5  19
ATOM     19  O   UNL     1       4.538  -0.258   2.605  1.00  0.00    -0.504 OA
ATOM     20  H   UNL     1       4.316   0.190   1.773  1.00  0.00     0.293 HD
ENDBRANCH   5  19
BRANCH   6  21
ATOM     21  O   UNL     1       2.282   1.260   3.081  1.00  0.00    -0.500 OA
ATOM     22  H   UNL     1       2.519   0.752   2.290  1.00  0.00     0.294 HD
ENDBRANCH   6  21
TORSDOF 5
ENDMDL
MODEL 3
REMARK VINA RESULT:    -4.461      3.611      4.488
REMARK INTER + INTRA:          -6.245
REMARK INTER:                  -5.254
REMARK INTRA:                  -0.991
REMARK UNBOUND:                -0.741
REMARK SMILES Cc1ccc(C(=O)c2cc(O)c(O)c([N+](=O)[O-])c2)cc1
REMARK SMILES IDX 8 1 18 2 9 3 14 4 10 5 12 6 6 7 7 8 5 9 4 10 19 11 3 12
REMARK SMILES IDX 20 13 2 14 1 15 15 16 17 17 16 18 11 19 13 21
REMARK H PARENT 11 20 13 22
ROOT
ATOM      1  C   UNL     1       6.751   3.240   8.408  1.00  0.00     0.033 A 
ATOM      2  C   UNL     1       6.029   2.360   7.635  1.00  0.00     0.102 A 
ATOM      3  C   UNL     1       6.761   4.596   8.183  1.00  0.00     0.063 A 
ATOM      4  C   UNL     1       5.274   2.866   6.577  1.00  0.00     0.315 A 
ATOM      5  C   UNL     1       6.007   5.102   7.124  1.00  0.00     0.165 A 
ATOM      6  C   UNL     1       5.263   4.237   6.321  1.00  0.00     0.237 A 
ENDROOT
BRANCH   1   7
ATOM      7  C   UNL     1       7.560   2.698   9.542  1.00  0.00     0.193 C 
ATOM      8  O   UNL     1       8.612   2.107   9.258  1.00  0.00    -0.289 OA
BRANCH   7   9
ATOM      9  C   UNL     1       7.153   2.845  10.930  1.00  0.00     0.023 A 
ATOM     10  C   UNL     1       8.047   3.359  11.869  1.00  0.00     0.012 A 
ATOM     11  C   UNL     1       5.868   2.471  11.323  1.00  0.00     0.012 A 
ATOM     12  C   UNL     1       7.657   3.500  13.200  1.00  0.00     0.004 A 
ATOM     13  C   UNL     1       5.476   2.612  12.655  1.00  0.00     0.004 A 
ATOM     14  C   UNL     1       6.371   3.127  13.594  1.00  0.00    -0.051 A 
ATOM     15  C   UNL     1       5.955   3.276  15.017  1.00  0.00     0.044 C 
ENDBRANCH   7   9
ENDBRANCH   1   7
BRANCH   4  16
ATOM     16  N   UNL     1       4.523   1.968   5.770  1.00  0.00     0.066 N 
ATOM     17  O   UNL     1       3.934   1.006   6.319  1.00  0.00    -0.258 OA
ATOM     18  O   UNL     1       4.470   2.165   4.533  1.00  0.00    -0.258 OA
ENDBRANCH   4  16
BRANCH   5  19
ATOM     19  O   UNL     1       6.004   6.444   6.886  1.00  0.00    -0.504 OA
ATOM     20  H   UNL     1       5.935   6.923   7.728  1.00  0.00     0.293 HD
ENDBRANCH   5  19
BRANCH   6  21
ATOM     21  O   UNL     1       4.528   4.744   5.289  1.00  0.00    -0.500 OA
ATOM     22  H   UNL     1       5.122   5.064   4.592  1.00  0.00     0.294 HD
ENDBRANCH   6  21
TORSDOF 5
ENDMDL
MODEL 4
REMARK VINA RESULT:    -4.316      1.791      2.359
REMARK INTER + INTRA:          -6.066
REMARK INTER:                  -5.301
REMARK INTRA:                  -0.765
REMARK UNBOUND:                -0.741
REMARK SMILES Cc1ccc(C(=O)c2cc(O)c(O)c([N+](=O)[O-])c2)cc1
REMARK SMILES IDX 8 1 18 2 9 3 14 4 10 5 12 6 6 7 7 8 5 9 4 10 19 11 3 12
REMARK SMILES IDX 20 13 2 14 1 15 15 16 17 17 16 18 11 19 13 21
REMARK H PARENT 11 20 13 22
ROOT
ATOM      1  C   UNL     1       4.698   2.987   5.398  1.00  0.00     0.033 A 
ATOM      2  C   UNL     1       5.240   1.957   4.665  1.00  0.00     0.102 A 
ATOM      3  C   UNL     1       3.348   3.242   5.443  1.00  0.00     0.063 A 
ATOM      4  C   UNL     1       4.382   1.134   3.936  1.00  0.00     0.315 A 
ATOM      5  C   UNL     1       2.489   2.419   4.712  1.00  0.00     0.165 A 
ATOM      6  C   UNL     1       3.007   1.364   3.959  1.00  0.00     0.237 A 
ENDROOT
BRANCH   1   7
ATOM      7  C   UNL     1       5.616   3.869   6.180  1.00  0.00     0.193 C 
ATOM      8  O   UNL     1       5.992   4.920   5.639  1.00  0.00    -0.289 OA
BRANCH   7   9
ATOM      9  C   UNL     1       6.066   3.533   7.521  1.00  0.00     0.023 A 
ATOM     10  C   UNL     1       6.360   2.208   7.847  1.00  0.00     0.012 A 
ATOM     11  C   UNL     1       6.205   4.534   8.482  1.00  0.00     0.012 A 
ATOM     12  C   UNL     1       6.792   1.886   9.133  1.00  0.00     0.004 A 
ATOM     13  C   UNL     1       6.637   4.212   9.769  1.00  0.00     0.004 A 
ATOM     14  C   UNL     1       6.931   2.888  10.095  1.00  0.00    -0.051 A 
ATOM     15  C   UNL     1       7.391   2.542  11.470  1.00  0.00     0.044 C 
ENDBRANCH   7   9
ENDBRANCH   1   7
BRANCH   4  16
ATOM     16  N   UNL     1       4.928   0.065   3.174  1.00  0.00     0.066 N 
ATOM     17  O   UNL     1       4.499  -0.131   2.011  1.00  0.00    -0.258 OA
ATOM     18  O   UNL     1       5.822  -0.649   3.685  1.00  0.00    -0.258 OA
ENDBRANCH   4  16
BRANCH   5  19
ATOM     19  O   UNL     1       1.148   2.656   4.745  1.00  0.00    -0.504 OA
ATOM     20  H   UNL     1       0.962   3.528   4.359  1.00  0.00     0.293 HD
ENDBRANCH   5  19
BRANCH   6  21
ATOM     21  O   UNL     1       2.157   0.566   3.249  1.00  0.00    -0.500 OA
ATOM     22  H   UNL     1       2.021   0.940   2.365  1.00  0.00     0.294 HD
ENDBRANCH   6  21
TORSDOF 5
ENDMDL
MODEL 5
REMARK VINA RESULT:    -4.278      1.614      3.095
REMARK INTER + INTRA:          -6.019
REMARK INTER:                  -5.348
REMARK INTRA:                  -0.671
REMARK UNBOUND:                -0.741
REMARK SMILES Cc1ccc(C(=O)c2cc(O)c(O)c([N+](=O)[O-])c2)cc1
REMARK SMILES IDX 8 1 18 2 9 3 14 4 10 5 12 6 6 7 7 8 5 9 4 10 19 11 3 12
REMARK SMILES IDX 20 13 2 14 1 15 15 16 17 17 16 18 11 19 13 21
REMARK H PARENT 11 20 13 22
ROOT
ATOM      1  C   UNL     1       4.562   0.444   5.955  1.00  0.00     0.033 A 
ATOM      2  C   UNL     1       3.597   1.412   6.110  1.00  0.00     0.102 A 
ATOM      3  C   UNL     1       4.896  -0.088   4.733  1.00  0.00     0.063 A 
ATOM      4  C   UNL     1       2.927   1.873   4.977  1.00  0.00     0.315 A 
ATOM      5  C   UNL     1       4.226   0.372   3.599  1.00  0.00     0.165 A 
ATOM      6  C   UNL     1       3.241   1.354   3.721  1.00  0.00     0.237 A 
ENDROOT
BRANCH   1   7
ATOM      7  C   UNL     1       5.279  -0.050   7.169  1.00  0.00     0.193 C 
ATOM      8  O   UNL     1       4.862  -1.096   7.690  1.00  0.00    -0.289 OA
BRANCH   7   9
ATOM      9  C   UNL     1       6.422   0.646   7.738  1.00  0.00     0.023 A 
ATOM     10  C   UNL     1       7.490  -0.080   8.264  1.00  0.00     0.012 A 
ATOM     11  C   UNL     1       6.450   2.041   7.756  1.00  0.00     0.012 A 
ATOM     12  C   UNL     1       8.586   0.589   8.809  1.00  0.00     0.004 A 
ATOM     13  C   UNL     1       7.547   2.710   8.301  1.00  0.00     0.004 A 
ATOM     14  C   UNL     1       8.615   1.984   8.828  1.00  0.00    -0.051 A 
ATOM     15  C   UNL     1       9.786   2.698   9.412  1.00  0.00     0.044 C 
ENDBRANCH   7   9
ENDBRANCH   1   7
BRANCH   4  16
ATOM     16  N   UNL     1       1.927   2.873   5.121  1.00  0.00     0.066 N 
ATOM     17  O   UNL     1       2.238   3.970   5.644  1.00  0.00    -0.258 OA
ATOM     18  O   UNL     1       0.765   2.630   4.720  1.00  0.00    -0.258 OA
ENDBRANCH   4  16
BRANCH   5  19
ATOM     19  O   UNL     1       4.544  -0.144   2.379  1.00  0.00    -0.504 OA
ATOM     20  H   UNL     1       3.823  -0.718   2.071  1.00  0.00     0.293 HD
ENDBRANCH   5  19
BRANCH   6  21
ATOM     21  O   UNL     1       2.594   1.797   2.605  1.00  0.00    -0.500 OA
ATOM     22  H   UNL     1       1.686   1.456   2.598  1.00  0.00     0.294 HD
ENDBRANCH   6  21
TORSDOF 5
ENDMDL
MODEL 6
REMARK VINA RESULT:    -4.098      3.264      4.535
REMARK INTER + INTRA:          -5.797
REMARK INTER:                  -4.799
REMARK INTRA:                  -0.998
REMARK UNBOUND:                -0.741
REMARK SMILES Cc1ccc(C(=O)c2cc(O)c(O)c([N+](=O)[O-])c2)cc1
REMARK SMILES IDX 8 1 18 2 9 3 14 4 10 5 12 6 6 7 7 8 5 9 4 10 19 11 3 12
REMARK SMILES IDX 20 13 2 14 1 15 15 16 17 17 16 18 11 19 13 21
REMARK H PARENT 11 20 13 22
ROOT
ATOM      1  C   UNL     1       6.409   1.735   8.463  1.00  0.00     0.033 A 
ATOM      2  C   UNL     1       5.539   1.919   7.413  1.00  0.00     0.102 A 
ATOM      3  C   UNL     1       6.889   0.500   8.827  1.00  0.00     0.063 A 
ATOM      4  C   UNL     1       5.127   0.803   6.686  1.00  0.00     0.315 A 
ATOM      5  C   UNL     1       6.476  -0.617   8.100  1.00  0.00     0.165 A 
ATOM      6  C   UNL     1       5.595  -0.465   7.029  1.00  0.00     0.237 A 
ENDROOT
BRANCH   1   7
ATOM      7  C   UNL     1       6.851   2.931   9.243  1.00  0.00     0.193 C 
ATOM      8  O   UNL     1       7.352   3.871   8.607  1.00  0.00    -0.289 OA
BRANCH   7   9
ATOM      9  C   UNL     1       6.712   3.015  10.687  1.00  0.00     0.023 A 
ATOM     10  C   UNL     1       7.827   3.283  11.482  1.00  0.00     0.012 A 
ATOM     11  C   UNL     1       5.463   2.828  11.280  1.00  0.00     0.012 A 
ATOM     12  C   UNL     1       7.693   3.363  12.867  1.00  0.00     0.004 A 
ATOM     13  C   UNL     1       5.328   2.908  12.666  1.00  0.00     0.004 A 
ATOM     14  C   UNL     1       6.443   3.176  13.460  1.00  0.00    -0.051 A 
ATOM     15  C   UNL     1       6.301   3.261  14.942  1.00  0.00     0.044 C 
ENDBRANCH   7   9
ENDBRANCH   1   7
BRANCH   4  16
ATOM     16  N   UNL     1       4.228   0.977   5.598  1.00  0.00     0.066 N 
ATOM     17  O   UNL     1       3.363   1.883   5.666  1.00  0.00    -0.258 OA
ATOM     18  O   UNL     1       4.327   0.222   4.603  1.00  0.00    -0.258 OA
ENDBRANCH   4  16
BRANCH   5  19
ATOM     19  O   UNL     1       6.942  -1.850   8.446  1.00  0.00    -0.504 OA
ATOM     20  H   UNL     1       7.479  -2.210   7.721  1.00  0.00     0.293 HD
ENDBRANCH   5  19
BRANCH   6  21
ATOM     21  O   UNL     1       5.198  -1.565   6.324  1.00  0.00    -0.500 OA
ATOM     22  H   UNL     1       5.541  -1.513   5.419  1.00  0.00     0.294 HD
ENDBRANCH   6  21
TORSDOF 5
ENDMDL
MODEL 7
REMARK VINA RESULT:    -4.047      1.368      2.802
REMARK INTER + INTRA:          -5.734
REMARK INTER:                  -4.936
REMARK INTRA:                  -0.798
REMARK UNBOUND:                -0.741
REMARK SMILES Cc1ccc(C(=O)c2cc(O)c(O)c([N+](=O)[O-])c2)cc1
REMARK SMILES IDX 8 1 18 2 9 3 14 4 10 5 12 6 6 7 7 8 5 9 4 10 19 11 3 12
REMARK SMILES IDX 20 13 2 14 1 15 15 16 17 17 16 18 11 19 13 21
REMARK H PARENT 11 20 13 22
ROOT
ATOM      1  C   UNL     1       4.728   2.084   6.827  1.00  0.00     0.033 A 
ATOM      2  C   UNL     1       3.525   2.731   6.660  1.00  0.00     0.102 A 
ATOM      3  C   UNL     1       5.317   1.336   5.835  1.00  0.00     0.063 A 
ATOM      4  C   UNL     1       2.876   2.625   5.430  1.00  0.00     0.315 A 
ATOM      5  C   UNL     1       4.667   1.229   4.605  1.00  0.00     0.165 A 
ATOM      6  C   UNL     1       3.446   1.875   4.403  1.00  0.00     0.237 A 
ENDROOT
BRANCH   1   7
ATOM      7  C   UNL     1       5.423   2.198   8.144  1.00  0.00     0.193 C 
ATOM      8  O   UNL     1       4.717   2.376   9.148  1.00  0.00    -0.289 OA
BRANCH   7   9
ATOM      9  C   UNL     1       6.869   2.105   8.273  1.00  0.00     0.023 A 
ATOM     10  C   UNL     1       7.651   3.258   8.199  1.00  0.00     0.012 A 
ATOM     11  C   UNL     1       7.474   0.864   8.471  1.00  0.00     0.012 A 
ATOM     12  C   UNL     1       9.037   3.169   8.323  1.00  0.00     0.004 A 
ATOM     13  C   UNL     1       8.861   0.775   8.595  1.00  0.00     0.004 A 
ATOM     14  C   UNL     1       9.643   1.928   8.521  1.00  0.00    -0.051 A 
ATOM     15  C   UNL     1      11.125   1.833   8.652  1.00  0.00     0.044 C 
ENDBRANCH   7   9
ENDBRANCH   1   7
BRANCH   4  16
ATOM     16  N   UNL     1       1.633   3.289   5.243  1.00  0.00     0.066 N 
ATOM     17  O   UNL     1       0.695   2.673   4.681  1.00  0.00    -0.258 OA
ATOM     18  O   UNL     1       1.510   4.470   5.644  1.00  0.00    -0.258 OA
ENDBRANCH   4  16
BRANCH   5  19
ATOM     19  O   UNL     1       5.236   0.493   3.610  1.00  0.00    -0.504 OA
ATOM     20  H   UNL     1       5.586  -0.335   3.978  1.00  0.00     0.293 HD
ENDBRANCH   5  19
BRANCH   6  21
ATOM     21  O   UNL     1       2.820   1.763   3.195  1.00  0.00    -0.500 OA
ATOM     22  H   UNL     1       3.443   1.419   2.536  1.00  0.00     0.294 HD
ENDBRANCH   6  21
TORSDOF 5
ENDMDL
MODEL 8
REMARK VINA RESULT:    -4.004      3.558      7.138
REMARK INTER + INTRA:          -5.681
REMARK INTER:                  -4.765
REMARK INTRA:                  -0.916
REMARK UNBOUND:                -0.741
REMARK SMILES Cc1ccc(C(=O)c2cc(O)c(O)c([N+](=O)[O-])c2)cc1
REMARK SMILES IDX 8 1 18 2 9 3 14 4 10 5 12 6 6 7 7 8 5 9 4 10 19 11 3 12
REMARK SMILES IDX 20 13 2 14 1 15 15 16 17 17 16 18 11 19 13 21
REMARK H PARENT 11 20 13 22
ROOT
ATOM      1  C   UNL     1       7.260   1.396   8.394  1.00  0.00     0.033 A 
ATOM      2  C   UNL     1       6.901   2.022   9.565  1.00  0.00     0.102 A 
ATOM      3  C   UNL     1       8.566   1.263   7.988  1.00  0.00     0.063 A 
ATOM      4  C   UNL     1       7.908   2.544  10.377  1.00  0.00     0.315 A 
ATOM      5  C   UNL     1       9.573   1.786   8.800  1.00  0.00     0.165 A 
ATOM      6  C   UNL     1       9.244   2.427   9.995  1.00  0.00     0.237 A 
ENDROOT
BRANCH   1   7
ATOM      7  C   UNL     1       6.182   0.836   7.524  1.00  0.00     0.193 C 
ATOM      8  O   UNL     1       6.204  -0.384   7.304  1.00  0.00    -0.289 OA
BRANCH   7   9
ATOM      9  C   UNL     1       5.136   1.666   6.946  1.00  0.00     0.023 A 
ATOM     10  C   UNL     1       3.824   1.197   6.892  1.00  0.00     0.012 A 
ATOM     11  C   UNL     1       5.446   2.931   6.447  1.00  0.00     0.012 A 
ATOM     12  C   UNL     1       2.821   1.993   6.338  1.00  0.00     0.004 A 
ATOM     13  C   UNL     1       4.443   3.728   5.893  1.00  0.00     0.004 A 
ATOM     14  C   UNL     1       3.131   3.259   5.839  1.00  0.00    -0.051 A 
ATOM     15  C   UNL     1       2.059   4.109   5.246  1.00  0.00     0.044 C 
ENDBRANCH   7   9
ENDBRANCH   1   7
BRANCH   4  16
ATOM     16  N   UNL     1       7.553   3.194  11.591  1.00  0.00     0.066 N 
ATOM     17  O   UNL     1       8.357   3.161  12.554  1.00  0.00    -0.258 OA
ATOM     18  O   UNL     1       6.448   3.781  11.663  1.00  0.00    -0.258 OA
ENDBRANCH   4  16
BRANCH   5  19
ATOM     19  O   UNL     1      10.874   1.664   8.414  1.00  0.00    -0.504 OA
ATOM     20  H   UNL     1      11.045   2.245   7.655  1.00  0.00     0.293 HD
ENDBRANCH   5  19
BRANCH   6  21
ATOM     21  O   UNL     1      10.238   2.934  10.781  1.00  0.00    -0.500 OA
ATOM     22  H   UNL     1      10.044   3.860  10.994  1.00  0.00     0.294 HD
ENDBRANCH   6  21
TORSDOF 5
ENDMDL
MODEL 9
REMARK VINA RESULT:    -3.967      2.238      3.567
REMARK INTER + INTRA:          -5.636
REMARK INTER:                  -4.700
REMARK INTRA:                  -0.935
REMARK UNBOUND:                -0.741
REMARK SMILES Cc1ccc(C(=O)c2cc(O)c(O)c([N+](=O)[O-])c2)cc1
REMARK SMILES IDX 8 1 18 2 9 3 14 4 10 5 12 6 6 7 7 8 5 9 4 10 19 11 3 12
REMARK SMILES IDX 20 13 2 14 1 15 15 16 17 17 16 18 11 19 13 21
REMARK H PARENT 11 20 13 22
ROOT
ATOM      1  C   UNL     1       6.603   2.616   7.915  1.00  0.00     0.033 A 
ATOM      2  C   UNL     1       5.639   1.977   7.169  1.00  0.00     0.102 A 
ATOM      3  C   UNL     1       6.788   3.977   7.886  1.00  0.00     0.063 A 
ATOM      4  C   UNL     1       4.812   2.745   6.349  1.00  0.00     0.315 A 
ATOM      5  C   UNL     1       5.962   4.746   7.065  1.00  0.00     0.165 A 
ATOM      6  C   UNL     1       4.973   4.129   6.297  1.00  0.00     0.237 A 
ENDROOT
BRANCH   1   7
ATOM      7  C   UNL     1       7.489   1.793   8.793  1.00  0.00     0.193 C 
ATOM      8  O   UNL     1       6.943   0.952   9.523  1.00  0.00    -0.289 OA
BRANCH   7   9
ATOM      9  C   UNL     1       8.934   1.952   8.810  1.00  0.00     0.023 A 
ATOM     10  C   UNL     1       9.589   2.243  10.007  1.00  0.00     0.012 A 
ATOM     11  C   UNL     1       9.665   1.813   7.631  1.00  0.00     0.012 A 
ATOM     12  C   UNL     1      10.976   2.395  10.023  1.00  0.00     0.004 A 
ATOM     13  C   UNL     1      11.052   1.964   7.647  1.00  0.00     0.004 A 
ATOM     14  C   UNL     1      11.708   2.255   8.843  1.00  0.00    -0.051 A 
ATOM     15  C   UNL     1      13.189   2.419   8.861  1.00  0.00     0.044 C 
ENDBRANCH   7   9
ENDBRANCH   1   7
BRANCH   4  16
ATOM     16  N   UNL     1       3.811   2.098   5.574  1.00  0.00     0.066 N 
ATOM     17  O   UNL     1       3.055   1.267   6.131  1.00  0.00    -0.258 OA
ATOM     18  O   UNL     1       3.713   2.379   4.356  1.00  0.00    -0.258 OA
ENDBRANCH   4  16
BRANCH   5  19
ATOM     19  O   UNL     1       6.130   6.097   7.024  1.00  0.00    -0.504 OA
ATOM     20  H   UNL     1       5.279   6.525   6.832  1.00  0.00     0.293 HD
ENDBRANCH   5  19
BRANCH   6  21
ATOM     21  O   UNL     1       4.171   4.891   5.499  1.00  0.00    -0.500 OA
ATOM     22  H   UNL     1       4.072   5.775   5.885  1.00  0.00     0.294 HD
ENDBRANCH   6  21
TORSDOF 5
ENDMDL
