MODEL 1
REMARK VINA RESULT:    -6.668      0.000      0.000
REMARK INTER + INTRA:          -8.416
REMARK INTER:                  -7.837
REMARK INTRA:                  -0.579
REMARK UNBOUND:                -0.579
REMARK SMILES O=C(O)c1cc(-c2ccc(F)cc2F)ccc1O
REMARK SMILES IDX 6 1 5 2 15 3 4 4 17 5 16 6 7 7 13 8 12 9 8 10 10 11 9 12
REMARK SMILES IDX 14 13 11 14 2 15 1 16 3 17 18 19
REMARK H PARENT 3 18 18 20
ROOT
ATOM      1  C   UNL     1       6.869   1.090  -4.140  1.00  0.00    -0.014 A 
ATOM      2  C   UNL     1       6.155   2.107  -3.508  1.00  0.00     0.028 A 
ATOM      3  C   UNL     1       6.516  -0.243  -3.932  1.00  0.00     0.013 A 
ATOM      4  C   UNL     1       5.088   1.792  -2.666  1.00  0.00     0.102 A 
ATOM      5  C   UNL     1       4.735   0.459  -2.458  1.00  0.00     0.130 A 
ATOM      6  C   UNL     1       5.449  -0.559  -3.091  1.00  0.00     0.048 A 
ENDROOT
BRANCH   1   7
ATOM      7  C   UNL     1       7.976   1.417  -5.012  1.00  0.00     0.018 A 
ATOM      8  C   UNL     1       7.846   2.433  -5.960  1.00  0.00     0.133 A 
ATOM      9  C   UNL     1       8.917   2.745  -6.799  1.00  0.00     0.079 A 
ATOM     10  C   UNL     1       9.176   0.714  -4.903  1.00  0.00     0.015 A 
ATOM     11  C   UNL     1      10.116   2.041  -6.690  1.00  0.00     0.126 A 
ATOM     12  C   UNL     1      10.245   1.026  -5.742  1.00  0.00     0.040 A 
ATOM     13  F   UNL     1       6.699   3.116  -6.079  1.00  0.00    -0.206 F 
ATOM     14  F   UNL     1      11.143   2.340  -7.495  1.00  0.00    -0.207 F 
ENDBRANCH   1   7
BRANCH   4  15
ATOM     15  C   UNL     1       4.355   2.869  -2.015  1.00  0.00     0.339 C 
ATOM     16  O   UNL     1       4.156   2.965  -0.801  1.00  0.00    -0.246 OA
BRANCH  15  17
ATOM     17  O   UNL     1       3.894   3.792  -2.902  1.00  0.00    -0.478 OA
ATOM     18  H   UNL     1       3.139   3.450  -3.425  1.00  0.00     0.297 HD
ENDBRANCH  15  17
ENDBRANCH   4  15
BRANCH   5  19
ATOM     19  O   UNL     1       3.696   0.129  -1.640  1.00  0.00    -0.507 OA
ATOM     20  H   UNL     1       3.731  -0.825  -1.450  1.00  0.00     0.293 HD
ENDBRANCH   5  19
TORSDOF 4
ENDMDL
MODEL 2
REMARK VINA RESULT:    -6.664      1.745      3.232
REMARK INTER + INTRA:          -8.412
REMARK INTER:                  -7.730
REMARK INTRA:                  -0.682
REMARK UNBOUND:                -0.579
REMARK SMILES O=C(O)c1cc(-c2ccc(F)cc2F)ccc1O
REMARK SMILES IDX 6 1 5 2 15 3 4 4 17 5 16 6 7 7 13 8 12 9 8 10 10 11 9 12
REMARK SMILES IDX 14 13 11 14 2 15 1 16 3 17 18 19
REMARK H PARENT 3 18 18 20
ROOT
ATOM      1  C   UNL     1       7.101   0.957  -4.096  1.00  0.00    -0.014 A 
ATOM      2  C   UNL     1       6.750  -0.387  -3.977  1.00  0.00     0.028 A 
ATOM      3  C   UNL     1       6.415   1.925  -3.362  1.00  0.00     0.013 A 
ATOM      4  C   UNL     1       5.712  -0.764  -3.125  1.00  0.00     0.102 A 
ATOM      5  C   UNL     1       5.025   0.203  -2.391  1.00  0.00     0.130 A 
ATOM      6  C   UNL     1       5.377   1.549  -2.510  1.00  0.00     0.048 A 
ENDROOT
BRANCH   1   7
ATOM      7  C   UNL     1       8.177   1.350  -4.981  1.00  0.00     0.018 A 
ATOM      8  C   UNL     1       9.410   0.701  -4.914  1.00  0.00     0.133 A 
ATOM      9  C   UNL     1      10.445   1.083  -5.769  1.00  0.00     0.079 A 
ATOM     10  C   UNL     1       7.978   2.378  -5.902  1.00  0.00     0.015 A 
ATOM     11  C   UNL     1      10.246   2.111  -6.689  1.00  0.00     0.126 A 
ATOM     12  C   UNL     1       9.012   2.758  -6.756  1.00  0.00     0.040 A 
ATOM     13  F   UNL     1       9.619  -0.287  -4.032  1.00  0.00    -0.206 F 
ATOM     14  F   UNL     1      11.238   2.478  -7.510  1.00  0.00    -0.207 F 
ENDBRANCH   1   7
BRANCH   4  15
ATOM     15  C   UNL     1       5.360  -2.173  -3.015  1.00  0.00     0.339 C 
ATOM     16  O   UNL     1       4.215  -2.629  -3.057  1.00  0.00    -0.246 OA
BRANCH  15  17
ATOM     17  O   UNL     1       6.453  -2.969  -2.857  1.00  0.00    -0.478 OA
ATOM     18  H   UNL     1       7.177  -2.505  -2.387  1.00  0.00     0.297 HD
ENDBRANCH  15  17
ENDBRANCH   4  15
BRANCH   5  19
ATOM     19  O   UNL     1       4.009  -0.145  -1.553  1.00  0.00    -0.507 OA
ATOM     20  H   UNL     1       3.249   0.441  -1.715  1.00  0.00     0.293 HD
ENDBRANCH   5  19
TORSDOF 4
ENDMDL
MODEL 3
REMARK VINA RESULT:    -5.211      2.013      2.807
REMARK INTER + INTRA:          -6.705
REMARK INTER:                  -5.666
REMARK INTRA:                  -1.038
REMARK UNBOUND:                -0.579
REMARK SMILES O=C(O)c1cc(-c2ccc(F)cc2F)ccc1O
REMARK SMILES IDX 6 1 5 2 15 3 4 4 17 5 16 6 7 7 13 8 12 9 8 10 10 11 9 12
REMARK SMILES IDX 14 13 11 14 2 15 1 16 3 17 18 19
REMARK H PARENT 3 18 18 20
ROOT
ATOM      1  C   UNL     1       8.899   1.248  -5.404  1.00  0.00    -0.014 A 
ATOM      2  C   UNL     1       7.756   2.043  -5.463  1.00  0.00     0.028 A 
ATOM      3  C   UNL     1       9.037   0.299  -4.391  1.00  0.00     0.013 A 
ATOM      4  C   UNL     1       6.749   1.891  -4.509  1.00  0.00     0.102 A 
ATOM      5  C   UNL     1       6.887   0.941  -3.496  1.00  0.00     0.130 A 
ATOM      6  C   UNL     1       8.031   0.145  -3.437  1.00  0.00     0.048 A 
ENDROOT
BRANCH   1   7
ATOM      7  C   UNL     1       9.945   1.407  -6.392  1.00  0.00     0.018 A 
ATOM      8  C   UNL     1      10.875   2.439  -6.268  1.00  0.00     0.133 A 
ATOM      9  C   UNL     1      11.881   2.589  -7.223  1.00  0.00     0.079 A 
ATOM     10  C   UNL     1      10.021   0.525  -7.469  1.00  0.00     0.015 A 
ATOM     11  C   UNL     1      11.957   1.708  -8.301  1.00  0.00     0.126 A 
ATOM     12  C   UNL     1      11.027   0.675  -8.423  1.00  0.00     0.040 A 
ATOM     13  F   UNL     1      10.814   3.298  -5.240  1.00  0.00    -0.206 F 
ATOM     14  F   UNL     1      12.922   1.851  -9.218  1.00  0.00    -0.207 F 
ENDBRANCH   1   7
BRANCH   4  15
ATOM     15  C   UNL     1       5.562   2.731  -4.588  1.00  0.00     0.339 C 
ATOM     16  O   UNL     1       4.899   3.121  -3.625  1.00  0.00    -0.246 OA
BRANCH  15  17
ATOM     17  O   UNL     1       5.244   3.059  -5.870  1.00  0.00    -0.478 OA
ATOM     18  H   UNL     1       5.488   3.984  -6.081  1.00  0.00     0.297 HD
ENDBRANCH  15  17
ENDBRANCH   4  15
BRANCH   5  19
ATOM     19  O   UNL     1       5.915   0.776  -2.555  1.00  0.00    -0.507 OA
ATOM     20  H   UNL     1       5.278   1.508  -2.625  1.00  0.00     0.293 HD
ENDBRANCH   5  19
TORSDOF 4
ENDMDL
MODEL 4
REMARK VINA RESULT:    -5.206      2.260      3.635
REMARK INTER + INTRA:          -6.698
REMARK INTER:                  -5.659
REMARK INTRA:                  -1.039
REMARK UNBOUND:                -0.579
REMARK SMILES O=C(O)c1cc(-c2ccc(F)cc2F)ccc1O
REMARK SMILES IDX 6 1 5 2 15 3 4 4 17 5 16 6 7 7 13 8 12 9 8 10 10 11 9 12
REMARK SMILES IDX 14 13 11 14 2 15 1 16 3 17 18 19
REMARK H PARENT 3 18 18 20
ROOT
ATOM      1  C   UNL     1       8.481   1.986  -5.641  1.00  0.00    -0.014 A 
ATOM      2  C   UNL     1       8.630   0.885  -4.799  1.00  0.00     0.028 A 
ATOM      3  C   UNL     1       7.233   2.593  -5.782  1.00  0.00     0.013 A 
ATOM      4  C   UNL     1       7.531   0.389  -4.097  1.00  0.00     0.102 A 
ATOM      5  C   UNL     1       6.283   0.996  -4.238  1.00  0.00     0.130 A 
ATOM      6  C   UNL     1       6.134   2.098  -5.081  1.00  0.00     0.048 A 
ENDROOT
BRANCH   1   7
ATOM      7  C   UNL     1       9.621   2.500  -6.370  1.00  0.00     0.018 A 
ATOM      8  C   UNL     1      10.033   1.882  -7.552  1.00  0.00     0.133 A 
ATOM      9  C   UNL     1      11.132   2.380  -8.252  1.00  0.00     0.079 A 
ATOM     10  C   UNL     1      10.307   3.615  -5.890  1.00  0.00     0.015 A 
ATOM     11  C   UNL     1      11.818   3.495  -7.771  1.00  0.00     0.126 A 
ATOM     12  C   UNL     1      11.405   4.112  -6.590  1.00  0.00     0.040 A 
ATOM     13  F   UNL     1       9.386   0.808  -8.026  1.00  0.00    -0.206 F 
ATOM     14  F   UNL     1      12.873   3.974  -8.442  1.00  0.00    -0.207 F 
ENDBRANCH   1   7
BRANCH   4  15
ATOM     15  C   UNL     1       7.707  -0.762  -3.223  1.00  0.00     0.339 C 
ATOM     16  O   UNL     1       6.852  -1.620  -2.991  1.00  0.00    -0.246 OA
BRANCH  15  17
ATOM     17  O   UNL     1       8.948  -0.805  -2.666  1.00  0.00    -0.478 OA
ATOM     18  H   UNL     1       8.982  -1.411  -1.897  1.00  0.00     0.297 HD
ENDBRANCH  15  17
ENDBRANCH   4  15
BRANCH   5  19
ATOM     19  O   UNL     1       5.196   0.528  -3.561  1.00  0.00    -0.507 OA
ATOM     20  H   UNL     1       4.388   0.836  -4.006  1.00  0.00     0.293 HD
ENDBRANCH   5  19
TORSDOF 4
ENDMDL
MODEL 5
REMARK VINA RESULT:    -5.191      4.160      6.490
REMARK INTER + INTRA:          -6.681
REMARK INTER:                  -5.623
REMARK INTRA:                  -1.058
REMARK UNBOUND:                -0.579
REMARK SMILES O=C(O)c1cc(-c2ccc(F)cc2F)ccc1O
REMARK SMILES IDX 6 1 5 2 15 3 4 4 17 5 16 6 7 7 13 8 12 9 8 10 10 11 9 12
REMARK SMILES IDX 14 13 11 14 2 15 1 16 3 17 18 19
REMARK H PARENT 3 18 18 20
ROOT
ATOM      1  C   UNL     1       9.223   1.538  -5.884  1.00  0.00    -0.014 A 
ATOM      2  C   UNL     1       9.753   2.794  -5.591  1.00  0.00     0.028 A 
ATOM      3  C   UNL     1       9.607   0.874  -7.049  1.00  0.00     0.013 A 
ATOM      4  C   UNL     1      10.667   3.387  -6.462  1.00  0.00     0.102 A 
ATOM      5  C   UNL     1      11.051   2.723  -7.627  1.00  0.00     0.130 A 
ATOM      6  C   UNL     1      10.521   1.466  -7.921  1.00  0.00     0.048 A 
ENDROOT
BRANCH   1   7
ATOM      7  C   UNL     1       8.274   0.924  -4.981  1.00  0.00     0.018 A 
ATOM      8  C   UNL     1       8.704  -0.024  -4.052  1.00  0.00     0.133 A 
ATOM      9  C   UNL     1       7.785  -0.614  -3.183  1.00  0.00     0.079 A 
ATOM     10  C   UNL     1       6.927   1.281  -5.041  1.00  0.00     0.015 A 
ATOM     11  C   UNL     1       6.439  -0.257  -3.244  1.00  0.00     0.126 A 
ATOM     12  C   UNL     1       6.010   0.691  -4.173  1.00  0.00     0.040 A 
ATOM     13  F   UNL     1       9.994  -0.381  -3.983  1.00  0.00    -0.206 F 
ATOM     14  F   UNL     1       5.556  -0.823  -2.411  1.00  0.00    -0.207 F 
ENDBRANCH   1   7
BRANCH   4  15
ATOM     15  C   UNL     1      11.209   4.699  -6.138  1.00  0.00     0.339 C 
ATOM     16  O   UNL     1      11.679   5.498  -6.951  1.00  0.00    -0.246 OA
BRANCH  15  17
ATOM     17  O   UNL     1      11.146   4.971  -4.806  1.00  0.00    -0.478 OA
ATOM     18  H   UNL     1      11.413   5.894  -4.609  1.00  0.00     0.297 HD
ENDBRANCH  15  17
ENDBRANCH   4  15
BRANCH   5  19
ATOM     19  O   UNL     1      11.944   3.284  -8.492  1.00  0.00    -0.507 OA
ATOM     20  H   UNL     1      11.946   4.248  -8.363  1.00  0.00     0.293 HD
ENDBRANCH   5  19
TORSDOF 4
ENDMDL
MODEL 6
REMARK VINA RESULT:    -5.165      4.463      6.770
REMARK INTER + INTRA:          -6.651
REMARK INTER:                  -5.573
REMARK INTRA:                  -1.077
REMARK UNBOUND:                -0.579
REMARK SMILES O=C(O)c1cc(-c2ccc(F)cc2F)ccc1O
REMARK SMILES IDX 6 1 5 2 15 3 4 4 17 5 16 6 7 7 13 8 12 9 8 10 10 11 9 12
REMARK SMILES IDX 14 13 11 14 2 15 1 16 3 17 18 19
REMARK H PARENT 3 18 18 20
ROOT
ATOM      1  C   UNL     1       8.998   1.963  -5.935  1.00  0.00    -0.014 A 
ATOM      2  C   UNL     1       9.203   0.981  -6.903  1.00  0.00     0.028 A 
ATOM      3  C   UNL     1       9.931   2.988  -5.771  1.00  0.00     0.013 A 
ATOM      4  C   UNL     1      10.342   1.023  -7.708  1.00  0.00     0.102 A 
ATOM      5  C   UNL     1      11.275   2.047  -7.545  1.00  0.00     0.130 A 
ATOM      6  C   UNL     1      11.069   3.030  -6.576  1.00  0.00     0.048 A 
ENDROOT
BRANCH   1   7
ATOM      7  C   UNL     1       7.818   1.920  -5.098  1.00  0.00     0.018 A 
ATOM      8  C   UNL     1       6.689   2.666  -5.440  1.00  0.00     0.133 A 
ATOM      9  C   UNL     1       5.554   2.622  -4.631  1.00  0.00     0.079 A 
ATOM     10  C   UNL     1       7.810   1.131  -3.949  1.00  0.00     0.015 A 
ATOM     11  C   UNL     1       5.547   1.833  -3.481  1.00  0.00     0.126 A 
ATOM     12  C   UNL     1       6.675   1.087  -3.140  1.00  0.00     0.040 A 
ATOM     13  F   UNL     1       6.681   3.432  -6.540  1.00  0.00    -0.206 F 
ATOM     14  F   UNL     1       4.457   1.790  -2.703  1.00  0.00    -0.207 F 
ENDBRANCH   1   7
BRANCH   4  15
ATOM     15  C   UNL     1      10.538  -0.012  -8.714  1.00  0.00     0.339 C 
ATOM     16  O   UNL     1       9.648  -0.512  -9.406  1.00  0.00    -0.246 OA
BRANCH  15  17
ATOM     17  O   UNL     1      11.841  -0.389  -8.823  1.00  0.00    -0.478 OA
ATOM     18  H   UNL     1      12.376   0.283  -9.296  1.00  0.00     0.297 HD
ENDBRANCH  15  17
ENDBRANCH   4  15
BRANCH   5  19
ATOM     19  O   UNL     1      12.393   2.106  -8.322  1.00  0.00    -0.507 OA
ATOM     20  H   UNL     1      13.174   2.188  -7.748  1.00  0.00     0.293 HD
ENDBRANCH   5  19
TORSDOF 4
ENDMDL
MODEL 7
REMARK VINA RESULT:    -5.144      2.083      2.942
REMARK INTER + INTRA:          -6.626
REMARK INTER:                  -5.585
REMARK INTRA:                  -1.041
REMARK UNBOUND:                -0.579
REMARK SMILES O=C(O)c1cc(-c2ccc(F)cc2F)ccc1O
REMARK SMILES IDX 6 1 5 2 15 3 4 4 17 5 16 6 7 7 13 8 12 9 8 10 10 11 9 12
REMARK SMILES IDX 14 13 11 14 2 15 1 16 3 17 18 19
REMARK H PARENT 3 18 18 20
ROOT
ATOM      1  C   UNL     1       9.010   1.410  -5.461  1.00  0.00    -0.014 A 
ATOM      2  C   UNL     1       7.844   2.172  -5.516  1.00  0.00     0.028 A 
ATOM      3  C   UNL     1       9.125   0.377  -4.531  1.00  0.00     0.013 A 
ATOM      4  C   UNL     1       6.792   1.902  -4.640  1.00  0.00     0.102 A 
ATOM      5  C   UNL     1       6.907   0.869  -3.710  1.00  0.00     0.130 A 
ATOM      6  C   UNL     1       8.075   0.106  -3.655  1.00  0.00     0.048 A 
ENDROOT
BRANCH   1   7
ATOM      7  C   UNL     1      10.102   1.691  -6.368  1.00  0.00     0.018 A 
ATOM      8  C   UNL     1      10.236   0.961  -7.550  1.00  0.00     0.133 A 
ATOM      9  C   UNL     1      11.290   1.235  -8.422  1.00  0.00     0.079 A 
ATOM     10  C   UNL     1      11.021   2.693  -6.059  1.00  0.00     0.015 A 
ATOM     11  C   UNL     1      12.210   2.237  -8.112  1.00  0.00     0.126 A 
ATOM     12  C   UNL     1      12.074   2.966  -6.931  1.00  0.00     0.040 A 
ATOM     13  F   UNL     1       9.363  -0.008  -7.861  1.00  0.00    -0.206 F 
ATOM     14  F   UNL     1      13.222   2.500  -8.949  1.00  0.00    -0.207 F 
ENDBRANCH   1   7
BRANCH   4  15
ATOM     15  C   UNL     1       5.582   2.709  -4.713  1.00  0.00     0.339 C 
ATOM     16  O   UNL     1       4.897   3.057  -3.748  1.00  0.00    -0.246 OA
BRANCH  15  17
ATOM     17  O   UNL     1       5.268   3.058  -5.990  1.00  0.00    -0.478 OA
ATOM     18  H   UNL     1       4.937   2.293  -6.506  1.00  0.00     0.297 HD
ENDBRANCH  15  17
ENDBRANCH   4  15
BRANCH   5  19
ATOM     19  O   UNL     1       5.891   0.588  -2.846  1.00  0.00    -0.507 OA
ATOM     20  H   UNL     1       6.136   0.898  -1.956  1.00  0.00     0.293 HD
ENDBRANCH   5  19
TORSDOF 4
ENDMDL
MODEL 8
REMARK VINA RESULT:    -5.016      4.787      7.092
REMARK INTER + INTRA:          -6.474
REMARK INTER:                  -5.442
REMARK INTRA:                  -1.032
REMARK UNBOUND:                -0.579
REMARK SMILES O=C(O)c1cc(-c2ccc(F)cc2F)ccc1O
REMARK SMILES IDX 6 1 5 2 15 3 4 4 17 5 16 6 7 7 13 8 12 9 8 10 10 11 9 12
REMARK SMILES IDX 14 13 11 14 2 15 1 16 3 17 18 19
REMARK H PARENT 3 18 18 20
ROOT
ATOM      1  C   UNL     1       9.229   1.419  -5.870  1.00  0.00    -0.014 A 
ATOM      2  C   UNL     1       9.679   0.674  -6.960  1.00  0.00     0.028 A 
ATOM      3  C   UNL     1       9.717   2.708  -5.657  1.00  0.00     0.013 A 
ATOM      4  C   UNL     1      10.617   1.219  -7.838  1.00  0.00     0.102 A 
ATOM      5  C   UNL     1      11.105   2.508  -7.625  1.00  0.00     0.130 A 
ATOM      6  C   UNL     1      10.654   3.253  -6.534  1.00  0.00     0.048 A 
ENDROOT
BRANCH   1   7
ATOM      7  C   UNL     1       8.257   0.854  -4.959  1.00  0.00     0.018 A 
ATOM      8  C   UNL     1       8.657  -0.071  -3.993  1.00  0.00     0.133 A 
ATOM      9  C   UNL     1       7.717  -0.613  -3.117  1.00  0.00     0.079 A 
ATOM     10  C   UNL     1       6.919   1.237  -5.047  1.00  0.00     0.015 A 
ATOM     11  C   UNL     1       6.379  -0.231  -3.205  1.00  0.00     0.126 A 
ATOM     12  C   UNL     1       5.980   0.695  -4.170  1.00  0.00     0.040 A 
ATOM     13  F   UNL     1       9.939  -0.451  -3.897  1.00  0.00    -0.206 F 
ATOM     14  F   UNL     1       5.476  -0.750  -2.364  1.00  0.00    -0.207 F 
ENDBRANCH   1   7
BRANCH   4  15
ATOM     15  C   UNL     1      11.074   0.425  -8.970  1.00  0.00     0.339 C 
ATOM     16  O   UNL     1      10.344  -0.180  -9.759  1.00  0.00    -0.246 OA
BRANCH  15  17
ATOM     17  O   UNL     1      12.430   0.414  -9.082  1.00  0.00    -0.478 OA
ATOM     18  H   UNL     1      12.720   0.181  -9.989  1.00  0.00     0.297 HD
ENDBRANCH  15  17
ENDBRANCH   4  15
BRANCH   5  19
ATOM     19  O   UNL     1      12.021   3.059  -8.471  1.00  0.00    -0.507 OA
ATOM     20  H   UNL     1      12.867   3.159  -8.000  1.00  0.00     0.293 HD
ENDBRANCH   5  19
TORSDOF 4
ENDMDL
MODEL 9
REMARK VINA RESULT:    -4.990      4.072      6.268
REMARK INTER + INTRA:          -6.445
REMARK INTER:                  -5.376
REMARK INTRA:                  -1.069
REMARK UNBOUND:                -0.579
REMARK SMILES O=C(O)c1cc(-c2ccc(F)cc2F)ccc1O
REMARK SMILES IDX 6 1 5 2 15 3 4 4 17 5 16 6 7 7 13 8 12 9 8 10 10 11 9 12
REMARK SMILES IDX 14 13 11 14 2 15 1 16 3 17 18 19
REMARK H PARENT 3 18 18 20
ROOT
ATOM      1  C   UNL     1       9.181   1.683  -5.808  1.00  0.00    -0.014 A 
ATOM      2  C   UNL     1       9.812   2.879  -5.470  1.00  0.00     0.028 A 
ATOM      3  C   UNL     1       9.496   1.042  -7.006  1.00  0.00     0.013 A 
ATOM      4  C   UNL     1      10.759   3.436  -6.330  1.00  0.00     0.102 A 
ATOM      5  C   UNL     1      11.074   2.795  -7.529  1.00  0.00     0.130 A 
ATOM      6  C   UNL     1      10.442   1.597  -7.866  1.00  0.00     0.048 A 
ENDROOT
BRANCH   1   7
ATOM      7  C   UNL     1       8.198   1.105  -4.916  1.00  0.00     0.018 A 
ATOM      8  C   UNL     1       6.880   1.563  -4.936  1.00  0.00     0.133 A 
ATOM      9  C   UNL     1       5.935   1.004  -4.075  1.00  0.00     0.079 A 
ATOM     10  C   UNL     1       8.570   0.089  -4.037  1.00  0.00     0.015 A 
ATOM     11  C   UNL     1       6.308  -0.012  -3.195  1.00  0.00     0.126 A 
ATOM     12  C   UNL     1       7.625  -0.469  -3.177  1.00  0.00     0.040 A 
ATOM     13  F   UNL     1       6.506   2.541  -5.773  1.00  0.00    -0.206 F 
ATOM     14  F   UNL     1       5.402  -0.549  -2.368  1.00  0.00    -0.207 F 
ENDBRANCH   1   7
BRANCH   4  15
ATOM     15  C   UNL     1      11.407   4.686  -5.959  1.00  0.00     0.339 C 
ATOM     16  O   UNL     1      11.757   4.997  -4.818  1.00  0.00    -0.246 OA
BRANCH  15  17
ATOM     17  O   UNL     1      11.600   5.507  -7.027  1.00  0.00    -0.478 OA
ATOM     18  H   UNL     1      12.446   5.317  -7.485  1.00  0.00     0.297 HD
ENDBRANCH  15  17
ENDBRANCH   4  15
BRANCH   5  19
ATOM     19  O   UNL     1      11.996   3.322  -8.383  1.00  0.00    -0.507 OA
ATOM     20  H   UNL     1      11.876   2.926  -9.263  1.00  0.00     0.293 HD
ENDBRANCH   5  19
TORSDOF 4
ENDMDL
