MODEL 1
REMARK VINA RESULT:    -7.162      0.000      0.000
REMARK INTER + INTRA:          -9.100
REMARK INTER:                  -8.418
REMARK INTRA:                  -0.682
REMARK UNBOUND:                -0.682
REMARK SMILES O=C(O)c1cc(-c2ccc(F)cc2F)ccc1O
REMARK SMILES IDX 6 1 5 2 15 3 4 4 17 5 16 6 7 7 13 8 12 9 8 10 10 11 9 12
REMARK SMILES IDX 14 13 11 14 2 15 1 16 3 17 18 19
REMARK H PARENT 3 18 18 20
ROOT
ATOM      1  C   UNL     1      -6.413   0.042  -5.441  1.00  0.00    -0.014 A 
ATOM      2  C   UNL     1      -6.460  -1.047  -4.573  1.00  0.00     0.028 A 
ATOM      3  C   UNL     1      -5.241   0.791  -5.558  1.00  0.00     0.013 A 
ATOM      4  C   UNL     1      -5.336  -1.390  -3.820  1.00  0.00     0.102 A 
ATOM      5  C   UNL     1      -4.165  -0.641  -3.937  1.00  0.00     0.130 A 
ATOM      6  C   UNL     1      -4.117   0.449  -4.807  1.00  0.00     0.048 A 
ENDROOT
BRANCH   1   7
ATOM      7  C   UNL     1      -7.578   0.399  -6.221  1.00  0.00     0.018 A 
ATOM      8  C   UNL     1      -8.087   1.697  -6.167  1.00  0.00     0.133 A 
ATOM      9  C   UNL     1      -9.211   2.036  -6.921  1.00  0.00     0.079 A 
ATOM     10  C   UNL     1      -8.193  -0.558  -7.028  1.00  0.00     0.015 A 
ATOM     11  C   UNL     1      -9.826   1.079  -7.727  1.00  0.00     0.126 A 
ATOM     12  C   UNL     1      -9.316  -0.218  -7.781  1.00  0.00     0.040 A 
ATOM     13  F   UNL     1      -7.510   2.628  -5.395  1.00  0.00    -0.206 F 
ATOM     14  F   UNL     1     -10.905   1.404  -8.450  1.00  0.00    -0.207 F 
ENDBRANCH   1   7
BRANCH   4  15
ATOM     15  C   UNL     1      -5.406  -2.531  -2.919  1.00  0.00     0.339 C 
ATOM     16  O   UNL     1      -5.145  -2.507  -1.714  1.00  0.00    -0.246 OA
BRANCH  15  17
ATOM     17  O   UNL     1      -5.803  -3.668  -3.553  1.00  0.00    -0.478 OA
ATOM     18  H   UNL     1      -6.410  -3.478  -4.299  1.00  0.00     0.297 HD
ENDBRANCH  15  17
ENDBRANCH   4  15
BRANCH   5  19
ATOM     19  O   UNL     1      -3.056  -0.959  -3.212  1.00  0.00    -0.507 OA
ATOM     20  H   UNL     1      -2.414  -1.405  -3.792  1.00  0.00     0.293 HD
ENDBRANCH   5  19
TORSDOF 4
ENDMDL
MODEL 2
REMARK VINA RESULT:    -7.159      1.122      1.605
REMARK INTER + INTRA:          -9.096
REMARK INTER:                  -8.409
REMARK INTRA:                  -0.686
REMARK UNBOUND:                -0.682
REMARK SMILES O=C(O)c1cc(-c2ccc(F)cc2F)ccc1O
REMARK SMILES IDX 6 1 5 2 15 3 4 4 17 5 16 6 7 7 13 8 12 9 8 10 10 11 9 12
REMARK SMILES IDX 14 13 11 14 2 15 1 16 3 17 18 19
REMARK H PARENT 3 18 18 20
ROOT
ATOM      1  C   UNL     1      -6.437   0.012  -5.436  1.00  0.00    -0.014 A 
ATOM      2  C   UNL     1      -6.475  -1.073  -4.562  1.00  0.00     0.028 A 
ATOM      3  C   UNL     1      -5.270   0.767  -5.560  1.00  0.00     0.013 A 
ATOM      4  C   UNL     1      -5.348  -1.404  -3.810  1.00  0.00     0.102 A 
ATOM      5  C   UNL     1      -4.181  -0.650  -3.934  1.00  0.00     0.130 A 
ATOM      6  C   UNL     1      -4.142   0.436  -4.810  1.00  0.00     0.048 A 
ENDROOT
BRANCH   1   7
ATOM      7  C   UNL     1      -7.606   0.357  -6.215  1.00  0.00     0.018 A 
ATOM      8  C   UNL     1      -8.226  -0.606  -7.012  1.00  0.00     0.133 A 
ATOM      9  C   UNL     1      -9.354  -0.269  -7.762  1.00  0.00     0.079 A 
ATOM     10  C   UNL     1      -8.114   1.655  -6.167  1.00  0.00     0.015 A 
ATOM     11  C   UNL     1      -9.861   1.029  -7.714  1.00  0.00     0.126 A 
ATOM     12  C   UNL     1      -9.241   1.991  -6.916  1.00  0.00     0.040 A 
ATOM     13  F   UNL     1      -7.749  -1.857  -7.072  1.00  0.00    -0.206 F 
ATOM     14  F   UNL     1     -10.943   1.353  -8.433  1.00  0.00    -0.207 F 
ENDBRANCH   1   7
BRANCH   4  15
ATOM     15  C   UNL     1      -5.408  -2.542  -2.902  1.00  0.00     0.339 C 
ATOM     16  O   UNL     1      -5.138  -2.510  -1.699  1.00  0.00    -0.246 OA
BRANCH  15  17
ATOM     17  O   UNL     1      -5.807  -3.683  -3.527  1.00  0.00    -0.478 OA
ATOM     18  H   UNL     1      -5.089  -4.349  -3.563  1.00  0.00     0.297 HD
ENDBRANCH  15  17
ENDBRANCH   4  15
BRANCH   5  19
ATOM     19  O   UNL     1      -3.068  -0.957  -3.209  1.00  0.00    -0.507 OA
ATOM     20  H   UNL     1      -2.637  -0.133  -2.924  1.00  0.00     0.293 HD
ENDBRANCH   5  19
TORSDOF 4
ENDMDL
MODEL 3
REMARK VINA RESULT:    -7.149      1.652      3.134
REMARK INTER + INTRA:          -9.084
REMARK INTER:                  -8.398
REMARK INTRA:                  -0.686
REMARK UNBOUND:                -0.682
REMARK SMILES O=C(O)c1cc(-c2ccc(F)cc2F)ccc1O
REMARK SMILES IDX 6 1 5 2 15 3 4 4 17 5 16 6 7 7 13 8 12 9 8 10 10 11 9 12
REMARK SMILES IDX 14 13 11 14 2 15 1 16 3 17 18 19
REMARK H PARENT 3 18 18 20
ROOT
ATOM      1  C   UNL     1      -6.446  -0.000  -5.409  1.00  0.00    -0.014 A 
ATOM      2  C   UNL     1      -5.291   0.769  -5.547  1.00  0.00     0.028 A 
ATOM      3  C   UNL     1      -6.464  -1.081  -4.527  1.00  0.00     0.013 A 
ATOM      4  C   UNL     1      -4.153   0.457  -4.802  1.00  0.00     0.102 A 
ATOM      5  C   UNL     1      -4.171  -0.623  -3.920  1.00  0.00     0.130 A 
ATOM      6  C   UNL     1      -5.328  -1.392  -3.783  1.00  0.00     0.048 A 
ENDROOT
BRANCH   1   7
ATOM      7  C   UNL     1      -7.627   0.321  -6.182  1.00  0.00     0.018 A 
ATOM      8  C   UNL     1      -8.230  -0.653  -6.978  1.00  0.00     0.133 A 
ATOM      9  C   UNL     1      -9.368  -0.339  -7.722  1.00  0.00     0.079 A 
ATOM     10  C   UNL     1      -8.162   1.608  -6.129  1.00  0.00     0.015 A 
ATOM     11  C   UNL     1      -9.902   0.948  -7.670  1.00  0.00     0.126 A 
ATOM     12  C   UNL     1      -9.299   1.921  -6.873  1.00  0.00     0.040 A 
ATOM     13  F   UNL     1      -7.726  -1.894  -7.043  1.00  0.00    -0.206 F 
ATOM     14  F   UNL     1     -10.994   1.250  -8.383  1.00  0.00    -0.207 F 
ENDBRANCH   1   7
BRANCH   4  15
ATOM     15  C   UNL     1      -2.957   1.273  -4.960  1.00  0.00     0.339 C 
ATOM     16  O   UNL     1      -1.835   0.847  -5.244  1.00  0.00    -0.246 OA
BRANCH  15  17
ATOM     17  O   UNL     1      -3.201   2.596  -4.758  1.00  0.00    -0.478 OA
ATOM     18  H   UNL     1      -2.572   3.163  -5.251  1.00  0.00     0.297 HD
ENDBRANCH  15  17
ENDBRANCH   4  15
BRANCH   5  19
ATOM     19  O   UNL     1      -3.070  -0.944  -3.183  1.00  0.00    -0.507 OA
ATOM     20  H   UNL     1      -2.279  -0.861  -3.743  1.00  0.00     0.293 HD
ENDBRANCH   5  19
TORSDOF 4
ENDMDL
MODEL 4
REMARK VINA RESULT:    -4.682      4.282      6.551
REMARK INTER + INTRA:          -6.185
REMARK INTER:                  -5.099
REMARK INTRA:                  -1.086
REMARK UNBOUND:                -0.682
REMARK SMILES O=C(O)c1cc(-c2ccc(F)cc2F)ccc1O
REMARK SMILES IDX 6 1 5 2 15 3 4 4 17 5 16 6 7 7 13 8 12 9 8 10 10 11 9 12
REMARK SMILES IDX 14 13 11 14 2 15 1 16 3 17 18 19
REMARK H PARENT 3 18 18 20
ROOT
ATOM      1  C   UNL     1      -8.721   0.618  -6.935  1.00  0.00    -0.014 A 
ATOM      2  C   UNL     1      -9.999   0.467  -6.400  1.00  0.00     0.028 A 
ATOM      3  C   UNL     1      -8.560   1.129  -8.223  1.00  0.00     0.013 A 
ATOM      4  C   UNL     1     -11.118   0.827  -7.151  1.00  0.00     0.102 A 
ATOM      5  C   UNL     1     -10.958   1.338  -8.439  1.00  0.00     0.130 A 
ATOM      6  C   UNL     1      -9.678   1.489  -8.975  1.00  0.00     0.048 A 
ENDROOT
BRANCH   1   7
ATOM      7  C   UNL     1      -7.560   0.243  -6.157  1.00  0.00     0.018 A 
ATOM      8  C   UNL     1      -7.071  -1.063  -6.211  1.00  0.00     0.133 A 
ATOM      9  C   UNL     1      -5.952  -1.420  -5.459  1.00  0.00     0.079 A 
ATOM     10  C   UNL     1      -6.929   1.191  -5.352  1.00  0.00     0.015 A 
ATOM     11  C   UNL     1      -5.322  -0.472  -4.653  1.00  0.00     0.126 A 
ATOM     12  C   UNL     1      -5.810   0.834  -4.600  1.00  0.00     0.040 A 
ATOM     13  F   UNL     1      -7.668  -1.987  -6.978  1.00  0.00    -0.206 F 
ATOM     14  F   UNL     1      -4.247  -0.814  -3.931  1.00  0.00    -0.207 F 
ENDBRANCH   1   7
BRANCH   4  15
ATOM     15  C   UNL     1     -12.445   0.661  -6.573  1.00  0.00     0.339 C 
ATOM     16  O   UNL     1     -13.508   0.927  -7.139  1.00  0.00    -0.246 OA
BRANCH  15  17
ATOM     17  O   UNL     1     -12.400   0.168  -5.306  1.00  0.00    -0.478 OA
ATOM     18  H   UNL     1     -12.680  -0.771  -5.270  1.00  0.00     0.297 HD
ENDBRANCH  15  17
ENDBRANCH   4  15
BRANCH   5  19
ATOM     19  O   UNL     1     -12.038   1.696  -9.190  1.00  0.00    -0.507 OA
ATOM     20  H   UNL     1     -12.335   0.926  -9.705  1.00  0.00     0.293 HD
ENDBRANCH   5  19
TORSDOF 4
ENDMDL
MODEL 5
REMARK VINA RESULT:    -4.644      4.618      6.939
REMARK INTER + INTRA:          -6.140
REMARK INTER:                  -5.051
REMARK INTRA:                  -1.089
REMARK UNBOUND:                -0.682
REMARK SMILES O=C(O)c1cc(-c2ccc(F)cc2F)ccc1O
REMARK SMILES IDX 6 1 5 2 15 3 4 4 17 5 16 6 7 7 13 8 12 9 8 10 10 11 9 12
REMARK SMILES IDX 14 13 11 14 2 15 1 16 3 17 18 19
REMARK H PARENT 3 18 18 20
ROOT
ATOM      1  C   UNL     1      -8.630   0.599  -6.988  1.00  0.00    -0.014 A 
ATOM      2  C   UNL     1      -8.398   1.103  -8.267  1.00  0.00     0.028 A 
ATOM      3  C   UNL     1      -9.934   0.503  -6.502  1.00  0.00     0.013 A 
ATOM      4  C   UNL     1      -9.469   1.512  -9.061  1.00  0.00     0.102 A 
ATOM      5  C   UNL     1     -10.773   1.416  -8.576  1.00  0.00     0.130 A 
ATOM      6  C   UNL     1     -11.006   0.911  -7.295  1.00  0.00     0.048 A 
ENDROOT
BRANCH   1   7
ATOM      7  C   UNL     1      -7.519   0.176  -6.163  1.00  0.00     0.018 A 
ATOM      8  C   UNL     1      -7.082  -1.149  -6.202  1.00  0.00     0.133 A 
ATOM      9  C   UNL     1      -6.011  -1.552  -5.404  1.00  0.00     0.079 A 
ATOM     10  C   UNL     1      -6.884   1.096  -5.329  1.00  0.00     0.015 A 
ATOM     11  C   UNL     1      -5.376  -0.632  -4.570  1.00  0.00     0.126 A 
ATOM     12  C   UNL     1      -5.813   0.692  -4.533  1.00  0.00     0.040 A 
ATOM     13  F   UNL     1      -7.683  -2.046  -6.996  1.00  0.00    -0.206 F 
ATOM     14  F   UNL     1      -4.348  -1.019  -3.804  1.00  0.00    -0.207 F 
ENDBRANCH   1   7
BRANCH   4  15
ATOM     15  C   UNL     1      -9.205   2.036 -10.394  1.00  0.00     0.339 C 
ATOM     16  O   UNL     1      -8.350   1.608 -11.173  1.00  0.00    -0.246 OA
BRANCH  15  17
ATOM     17  O   UNL     1     -10.021   3.078 -10.712  1.00  0.00    -0.478 OA
ATOM     18  H   UNL     1      -9.601   3.686 -11.357  1.00  0.00     0.297 HD
ENDBRANCH  15  17
ENDBRANCH   4  15
BRANCH   5  19
ATOM     19  O   UNL     1     -11.834   1.810  -9.336  1.00  0.00    -0.507 OA
ATOM     20  H   UNL     1     -11.517   2.400 -10.041  1.00  0.00     0.293 HD
ENDBRANCH   5  19
TORSDOF 4
ENDMDL
