MODEL 1
REMARK VINA RESULT:    -6.905      0.000      0.000
REMARK INTER + INTRA:          -8.773
REMARK INTER:                  -8.116
REMARK INTRA:                  -0.656
REMARK UNBOUND:                -0.656
REMARK SMILES O=C(O)c1cc(-c2ccc(F)cc2F)ccc1O
REMARK SMILES IDX 6 1 5 2 15 3 4 4 17 5 16 6 7 7 13 8 12 9 8 10 10 11 9 12
REMARK SMILES IDX 14 13 11 14 2 15 1 16 3 17 18 19
REMARK H PARENT 3 18 18 20
ROOT
ATOM      1  C   UNL     1      -7.261   4.085   0.736  1.00  0.00    -0.014 A 
ATOM      2  C   UNL     1      -6.186   4.957   0.900  1.00  0.00     0.028 A 
ATOM      3  C   UNL     1      -7.030   2.727   0.516  1.00  0.00     0.013 A 
ATOM      4  C   UNL     1      -4.879   4.473   0.844  1.00  0.00     0.102 A 
ATOM      5  C   UNL     1      -4.648   3.115   0.624  1.00  0.00     0.130 A 
ATOM      6  C   UNL     1      -5.724   2.242   0.460  1.00  0.00     0.048 A 
ENDROOT
BRANCH   1   7
ATOM      7  C   UNL     1      -8.617   4.587   0.793  1.00  0.00     0.018 A 
ATOM      8  C   UNL     1      -9.006   5.439   1.827  1.00  0.00     0.133 A 
ATOM      9  C   UNL     1     -10.315   5.920   1.878  1.00  0.00     0.079 A 
ATOM     10  C   UNL     1      -9.536   4.218  -0.190  1.00  0.00     0.015 A 
ATOM     11  C   UNL     1     -11.233   5.551   0.896  1.00  0.00     0.126 A 
ATOM     12  C   UNL     1     -10.843   4.699  -0.138  1.00  0.00     0.040 A 
ATOM     13  F   UNL     1      -8.136   5.801   2.780  1.00  0.00    -0.206 F 
ATOM     14  F   UNL     1     -12.489   6.012   0.944  1.00  0.00    -0.207 F 
ENDBRANCH   1   7
BRANCH   4  15
ATOM     15  C   UNL     1      -3.770   5.401   1.018  1.00  0.00     0.339 C 
ATOM     16  O   UNL     1      -2.754   5.439   0.320  1.00  0.00    -0.246 OA
BRANCH  15  17
ATOM     17  O   UNL     1      -3.967   6.254   2.060  1.00  0.00    -0.478 OA
ATOM     18  H   UNL     1      -3.637   5.880   2.905  1.00  0.00     0.297 HD
ENDBRANCH  15  17
ENDBRANCH   4  15
BRANCH   5  19
ATOM     19  O   UNL     1      -3.378   2.622   0.566  1.00  0.00    -0.507 OA
ATOM     20  H   UNL     1      -3.412   1.693   0.278  1.00  0.00     0.293 HD
ENDBRANCH   5  19
TORSDOF 4
ENDMDL
MODEL 2
REMARK VINA RESULT:    -6.892      1.130      1.610
REMARK INTER + INTRA:          -8.757
REMARK INTER:                  -8.104
REMARK INTRA:                  -0.653
REMARK UNBOUND:                -0.656
REMARK SMILES O=C(O)c1cc(-c2ccc(F)cc2F)ccc1O
REMARK SMILES IDX 6 1 5 2 15 3 4 4 17 5 16 6 7 7 13 8 12 9 8 10 10 11 9 12
REMARK SMILES IDX 14 13 11 14 2 15 1 16 3 17 18 19
REMARK H PARENT 3 18 18 20
ROOT
ATOM      1  C   UNL     1      -7.256   4.052   0.691  1.00  0.00    -0.014 A 
ATOM      2  C   UNL     1      -6.190   4.931   0.873  1.00  0.00     0.028 A 
ATOM      3  C   UNL     1      -7.012   2.697   0.463  1.00  0.00     0.013 A 
ATOM      4  C   UNL     1      -4.879   4.458   0.826  1.00  0.00     0.102 A 
ATOM      5  C   UNL     1      -4.634   3.104   0.598  1.00  0.00     0.130 A 
ATOM      6  C   UNL     1      -5.702   2.223   0.416  1.00  0.00     0.048 A 
ENDROOT
BRANCH   1   7
ATOM      7  C   UNL     1      -8.617   4.542   0.738  1.00  0.00     0.018 A 
ATOM      8  C   UNL     1      -9.524   4.188  -0.261  1.00  0.00     0.133 A 
ATOM      9  C   UNL     1     -10.835   4.663  -0.212  1.00  0.00     0.079 A 
ATOM     10  C   UNL     1      -9.020   5.370   1.785  1.00  0.00     0.015 A 
ATOM     11  C   UNL     1     -11.238   5.492   0.835  1.00  0.00     0.126 A 
ATOM     12  C   UNL     1     -10.330   5.845   1.833  1.00  0.00     0.040 A 
ATOM     13  F   UNL     1      -9.152   3.395  -1.276  1.00  0.00    -0.206 F 
ATOM     14  F   UNL     1     -12.496   5.949   0.882  1.00  0.00    -0.207 F 
ENDBRANCH   1   7
BRANCH   4  15
ATOM     15  C   UNL     1      -3.779   5.393   1.019  1.00  0.00     0.339 C 
ATOM     16  O   UNL     1      -2.759   5.448   0.327  1.00  0.00    -0.246 OA
BRANCH  15  17
ATOM     17  O   UNL     1      -3.989   6.231   2.070  1.00  0.00    -0.478 OA
ATOM     18  H   UNL     1      -4.940   6.444   2.182  1.00  0.00     0.297 HD
ENDBRANCH  15  17
ENDBRANCH   4  15
BRANCH   5  19
ATOM     19  O   UNL     1      -3.360   2.621   0.549  1.00  0.00    -0.507 OA
ATOM     20  H   UNL     1      -2.995   2.778  -0.339  1.00  0.00     0.293 HD
ENDBRANCH   5  19
TORSDOF 4
ENDMDL
MODEL 3
REMARK VINA RESULT:    -6.875      1.689      3.181
REMARK INTER + INTRA:          -8.738
REMARK INTER:                  -8.143
REMARK INTRA:                  -0.595
REMARK UNBOUND:                -0.656
REMARK SMILES O=C(O)c1cc(-c2ccc(F)cc2F)ccc1O
REMARK SMILES IDX 6 1 5 2 15 3 4 4 17 5 16 6 7 7 13 8 12 9 8 10 10 11 9 12
REMARK SMILES IDX 14 13 11 14 2 15 1 16 3 17 18 19
REMARK H PARENT 3 18 18 20
ROOT
ATOM      1  C   UNL     1      -7.225   4.026   0.611  1.00  0.00    -0.014 A 
ATOM      2  C   UNL     1      -7.041   2.668   0.352  1.00  0.00     0.028 A 
ATOM      3  C   UNL     1      -6.119   4.857   0.794  1.00  0.00     0.013 A 
ATOM      4  C   UNL     1      -5.752   2.140   0.276  1.00  0.00     0.102 A 
ATOM      5  C   UNL     1      -4.646   2.972   0.458  1.00  0.00     0.130 A 
ATOM      6  C   UNL     1      -4.830   4.331   0.717  1.00  0.00     0.048 A 
ENDROOT
BRANCH   1   7
ATOM      7  C   UNL     1      -8.562   4.574   0.692  1.00  0.00     0.018 A 
ATOM      8  C   UNL     1      -9.513   4.245  -0.274  1.00  0.00     0.133 A 
ATOM      9  C   UNL     1     -10.801   4.776  -0.193  1.00  0.00     0.079 A 
ATOM     10  C   UNL     1      -8.898   5.432   1.739  1.00  0.00     0.015 A 
ATOM     11  C   UNL     1     -11.137   5.634   0.853  1.00  0.00     0.126 A 
ATOM     12  C   UNL     1     -10.185   5.961   1.820  1.00  0.00     0.040 A 
ATOM     13  F   UNL     1      -9.205   3.424  -1.288  1.00  0.00    -0.206 F 
ATOM     14  F   UNL     1     -12.373   6.143   0.932  1.00  0.00    -0.207 F 
ENDBRANCH   1   7
BRANCH   4  15
ATOM     15  C   UNL     1      -5.581   0.720   0.005  1.00  0.00     0.339 C 
ATOM     16  O   UNL     1      -4.911  -0.061   0.684  1.00  0.00    -0.246 OA
BRANCH  15  17
ATOM     17  O   UNL     1      -6.257   0.320  -1.107  1.00  0.00    -0.478 OA
ATOM     18  H   UNL     1      -6.597   1.082  -1.621  1.00  0.00     0.297 HD
ENDBRANCH  15  17
ENDBRANCH   4  15
BRANCH   5  19
ATOM     19  O   UNL     1      -3.379   2.476   0.387  1.00  0.00    -0.507 OA
ATOM     20  H   UNL     1      -3.328   1.839  -0.347  1.00  0.00     0.293 HD
ENDBRANCH   5  19
TORSDOF 4
ENDMDL
MODEL 4
REMARK VINA RESULT:    -6.874      1.279      2.740
REMARK INTER + INTRA:          -8.736
REMARK INTER:                  -8.150
REMARK INTRA:                  -0.586
REMARK UNBOUND:                -0.656
REMARK SMILES O=C(O)c1cc(-c2ccc(F)cc2F)ccc1O
REMARK SMILES IDX 6 1 5 2 15 3 4 4 17 5 16 6 7 7 13 8 12 9 8 10 10 11 9 12
REMARK SMILES IDX 14 13 11 14 2 15 1 16 3 17 18 19
REMARK H PARENT 3 18 18 20
ROOT
ATOM      1  C   UNL     1      -7.193   4.043   0.659  1.00  0.00    -0.014 A 
ATOM      2  C   UNL     1      -7.022   2.686   0.388  1.00  0.00     0.028 A 
ATOM      3  C   UNL     1      -6.080   4.865   0.837  1.00  0.00     0.013 A 
ATOM      4  C   UNL     1      -5.738   2.150   0.294  1.00  0.00     0.102 A 
ATOM      5  C   UNL     1      -4.625   2.971   0.472  1.00  0.00     0.130 A 
ATOM      6  C   UNL     1      -4.796   4.329   0.743  1.00  0.00     0.048 A 
ENDROOT
BRANCH   1   7
ATOM      7  C   UNL     1      -8.526   4.600   0.757  1.00  0.00     0.018 A 
ATOM      8  C   UNL     1      -8.857   5.440   1.821  1.00  0.00     0.133 A 
ATOM      9  C   UNL     1     -10.142   5.975   1.912  1.00  0.00     0.079 A 
ATOM     10  C   UNL     1      -9.478   4.296  -0.215  1.00  0.00     0.015 A 
ATOM     11  C   UNL     1     -11.095   5.670   0.940  1.00  0.00     0.126 A 
ATOM     12  C   UNL     1     -10.762   4.831  -0.124  1.00  0.00     0.040 A 
ATOM     13  F   UNL     1      -7.954   5.740   2.765  1.00  0.00    -0.206 F 
ATOM     14  F   UNL     1     -12.329   6.183   1.027  1.00  0.00    -0.207 F 
ENDBRANCH   1   7
BRANCH   4  15
ATOM     15  C   UNL     1      -5.580   0.730   0.010  1.00  0.00     0.339 C 
ATOM     16  O   UNL     1      -4.918  -0.063   0.683  1.00  0.00    -0.246 OA
BRANCH  15  17
ATOM     17  O   UNL     1      -6.258   0.347  -1.106  1.00  0.00    -0.478 OA
ATOM     18  H   UNL     1      -6.196  -0.620  -1.256  1.00  0.00     0.297 HD
ENDBRANCH  15  17
ENDBRANCH   4  15
BRANCH   5  19
ATOM     19  O   UNL     1      -3.361   2.467   0.385  1.00  0.00    -0.507 OA
ATOM     20  H   UNL     1      -3.182   2.220  -0.539  1.00  0.00     0.293 HD
ENDBRANCH   5  19
TORSDOF 4
ENDMDL
MODEL 5
REMARK VINA RESULT:    -5.426      4.032      6.308
REMARK INTER + INTRA:          -7.033
REMARK INTER:                  -5.956
REMARK INTRA:                  -1.078
REMARK UNBOUND:                -0.656
REMARK SMILES O=C(O)c1cc(-c2ccc(F)cc2F)ccc1O
REMARK SMILES IDX 6 1 5 2 15 3 4 4 17 5 16 6 7 7 13 8 12 9 8 10 10 11 9 12
REMARK SMILES IDX 14 13 11 14 2 15 1 16 3 17 18 19
REMARK H PARENT 3 18 18 20
ROOT
ATOM      1  C   UNL     1      -9.757   5.105   0.849  1.00  0.00    -0.014 A 
ATOM      2  C   UNL     1     -10.077   6.372   0.364  1.00  0.00     0.028 A 
ATOM      3  C   UNL     1     -10.755   4.292   1.388  1.00  0.00     0.013 A 
ATOM      4  C   UNL     1     -11.395   6.828   0.419  1.00  0.00     0.102 A 
ATOM      5  C   UNL     1     -12.392   6.016   0.958  1.00  0.00     0.130 A 
ATOM      6  C   UNL     1     -12.072   4.747   1.443  1.00  0.00     0.048 A 
ENDROOT
BRANCH   1   7
ATOM      7  C   UNL     1      -8.391   4.632   0.794  1.00  0.00     0.018 A 
ATOM      8  C   UNL     1      -7.496   4.956   1.813  1.00  0.00     0.133 A 
ATOM      9  C   UNL     1      -6.179   4.498   1.756  1.00  0.00     0.079 A 
ATOM     10  C   UNL     1      -7.970   3.849  -0.281  1.00  0.00     0.015 A 
ATOM     11  C   UNL     1      -5.758   3.716   0.681  1.00  0.00     0.126 A 
ATOM     12  C   UNL     1      -6.654   3.391  -0.337  1.00  0.00     0.040 A 
ATOM     13  F   UNL     1      -7.883   5.710   2.852  1.00  0.00    -0.206 F 
ATOM     14  F   UNL     1      -4.495   3.276   0.626  1.00  0.00    -0.207 F 
ENDBRANCH   1   7
BRANCH   4  15
ATOM     15  C   UNL     1     -11.708   8.155  -0.093  1.00  0.00     0.339 C 
ATOM     16  O   UNL     1     -12.844   8.607  -0.256  1.00  0.00    -0.246 OA
BRANCH  15  17
ATOM     17  O   UNL     1     -10.591   8.876  -0.384  1.00  0.00    -0.478 OA
ATOM     18  H   UNL     1     -10.450   8.954  -1.351  1.00  0.00     0.297 HD
ENDBRANCH  15  17
ENDBRANCH   4  15
BRANCH   5  19
ATOM     19  O   UNL     1     -13.685   6.442   1.020  1.00  0.00    -0.507 OA
ATOM     20  H   UNL     1     -13.747   7.178   1.653  1.00  0.00     0.293 HD
ENDBRANCH   5  19
TORSDOF 4
ENDMDL
MODEL 6
REMARK VINA RESULT:    -5.374      4.436      6.714
REMARK INTER + INTRA:          -6.973
REMARK INTER:                  -5.893
REMARK INTRA:                  -1.080
REMARK UNBOUND:                -0.656
REMARK SMILES O=C(O)c1cc(-c2ccc(F)cc2F)ccc1O
REMARK SMILES IDX 6 1 5 2 15 3 4 4 17 5 16 6 7 7 13 8 12 9 8 10 10 11 9 12
REMARK SMILES IDX 14 13 11 14 2 15 1 16 3 17 18 19
REMARK H PARENT 3 18 18 20
ROOT
ATOM      1  C   UNL     1      -9.749   5.040   0.847  1.00  0.00    -0.014 A 
ATOM      2  C   UNL     1     -10.734   4.233   1.415  1.00  0.00     0.028 A 
ATOM      3  C   UNL     1     -10.081   6.300   0.350  1.00  0.00     0.013 A 
ATOM      4  C   UNL     1     -12.051   4.686   1.487  1.00  0.00     0.102 A 
ATOM      5  C   UNL     1     -12.383   5.946   0.989  1.00  0.00     0.130 A 
ATOM      6  C   UNL     1     -11.397   6.754   0.421  1.00  0.00     0.048 A 
ENDROOT
BRANCH   1   7
ATOM      7  C   UNL     1      -8.382   4.571   0.772  1.00  0.00     0.018 A 
ATOM      8  C   UNL     1      -7.468   4.912   1.769  1.00  0.00     0.133 A 
ATOM      9  C   UNL     1      -6.151   4.458   1.693  1.00  0.00     0.079 A 
ATOM     10  C   UNL     1      -7.980   3.774  -0.300  1.00  0.00     0.015 A 
ATOM     11  C   UNL     1      -5.749   3.662   0.620  1.00  0.00     0.126 A 
ATOM     12  C   UNL     1      -6.664   3.320  -0.376  1.00  0.00     0.040 A 
ATOM     13  F   UNL     1      -7.838   5.679   2.805  1.00  0.00    -0.206 F 
ATOM     14  F   UNL     1      -4.485   3.226   0.546  1.00  0.00    -0.207 F 
ENDBRANCH   1   7
BRANCH   4  15
ATOM     15  C   UNL     1     -13.065   3.828   2.084  1.00  0.00     0.339 C 
ATOM     16  O   UNL     1     -12.898   3.105   3.069  1.00  0.00    -0.246 OA
BRANCH  15  17
ATOM     17  O   UNL     1     -14.257   3.903   1.431  1.00  0.00    -0.478 OA
ATOM     18  H   UNL     1     -14.800   3.098   1.571  1.00  0.00     0.297 HD
ENDBRANCH  15  17
ENDBRANCH   4  15
BRANCH   5  19
ATOM     19  O   UNL     1     -13.665   6.408   1.050  1.00  0.00    -0.507 OA
ATOM     20  H   UNL     1     -13.654   7.379   1.004  1.00  0.00     0.293 HD
ENDBRANCH   5  19
TORSDOF 4
ENDMDL
MODEL 7
REMARK VINA RESULT:    -5.263      1.329      1.650
REMARK INTER + INTRA:          -6.843
REMARK INTER:                  -6.042
REMARK INTRA:                  -0.801
REMARK UNBOUND:                -0.656
REMARK SMILES O=C(O)c1cc(-c2ccc(F)cc2F)ccc1O
REMARK SMILES IDX 6 1 5 2 15 3 4 4 17 5 16 6 7 7 13 8 12 9 8 10 10 11 9 12
REMARK SMILES IDX 14 13 11 14 2 15 1 16 3 17 18 19
REMARK H PARENT 3 18 18 20
ROOT
ATOM      1  C   UNL     1      -8.005   4.439   0.385  1.00  0.00    -0.014 A 
ATOM      2  C   UNL     1      -6.869   5.117   0.825  1.00  0.00     0.028 A 
ATOM      3  C   UNL     1      -7.884   3.171  -0.185  1.00  0.00     0.013 A 
ATOM      4  C   UNL     1      -5.610   4.528   0.697  1.00  0.00     0.102 A 
ATOM      5  C   UNL     1      -5.490   3.260   0.127  1.00  0.00     0.130 A 
ATOM      6  C   UNL     1      -6.627   2.582  -0.313  1.00  0.00     0.048 A 
ENDROOT
BRANCH   1   7
ATOM      7  C   UNL     1      -9.310   5.050   0.516  1.00  0.00     0.018 A 
ATOM      8  C   UNL     1     -10.340   4.369   1.164  1.00  0.00     0.133 A 
ATOM      9  C   UNL     1     -11.597   4.962   1.289  1.00  0.00     0.079 A 
ATOM     10  C   UNL     1      -9.535   6.324  -0.005  1.00  0.00     0.015 A 
ATOM     11  C   UNL     1     -11.823   6.235   0.767  1.00  0.00     0.126 A 
ATOM     12  C   UNL     1     -10.791   6.916   0.120  1.00  0.00     0.040 A 
ATOM     13  F   UNL     1     -10.141   3.143   1.669  1.00  0.00    -0.206 F 
ATOM     14  F   UNL     1     -13.029   6.805   0.886  1.00  0.00    -0.207 F 
ENDBRANCH   1   7
BRANCH   4  15
ATOM     15  C   UNL     1      -4.436   5.252   1.163  1.00  0.00     0.339 C 
ATOM     16  O   UNL     1      -4.375   5.923   2.196  1.00  0.00    -0.246 OA
BRANCH  15  17
ATOM     17  O   UNL     1      -3.374   5.113   0.324  1.00  0.00    -0.478 OA
ATOM     18  H   UNL     1      -3.536   5.539  -0.544  1.00  0.00     0.297 HD
ENDBRANCH  15  17
ENDBRANCH   4  15
BRANCH   5  19
ATOM     19  O   UNL     1      -4.270   2.666  -0.007  1.00  0.00    -0.507 OA
ATOM     20  H   UNL     1      -3.730   2.869   0.777  1.00  0.00     0.293 HD
ENDBRANCH   5  19
TORSDOF 4
ENDMDL
MODEL 8
REMARK VINA RESULT:    -4.902      2.069      3.226
REMARK INTER + INTRA:          -6.418
REMARK INTER:                  -5.432
REMARK INTRA:                  -0.986
REMARK UNBOUND:                -0.656
REMARK SMILES O=C(O)c1cc(-c2ccc(F)cc2F)ccc1O
REMARK SMILES IDX 6 1 5 2 15 3 4 4 17 5 16 6 7 7 13 8 12 9 8 10 10 11 9 12
REMARK SMILES IDX 14 13 11 14 2 15 1 16 3 17 18 19
REMARK H PARENT 3 18 18 20
ROOT
ATOM      1  C   UNL     1      -8.553   4.660   0.983  1.00  0.00    -0.014 A 
ATOM      2  C   UNL     1      -8.295   3.591   0.126  1.00  0.00     0.028 A 
ATOM      3  C   UNL     1      -7.605   5.035   1.934  1.00  0.00     0.013 A 
ATOM      4  C   UNL     1      -7.088   2.897   0.219  1.00  0.00     0.102 A 
ATOM      5  C   UNL     1      -6.140   3.272   1.171  1.00  0.00     0.130 A 
ATOM      6  C   UNL     1      -6.399   4.342   2.029  1.00  0.00     0.048 A 
ENDROOT
BRANCH   1   7
ATOM      7  C   UNL     1      -9.805   5.379   0.887  1.00  0.00     0.018 A 
ATOM      8  C   UNL     1     -10.996   4.769   1.283  1.00  0.00     0.133 A 
ATOM      9  C   UNL     1     -12.200   5.466   1.189  1.00  0.00     0.079 A 
ATOM     10  C   UNL     1      -9.819   6.685   0.398  1.00  0.00     0.015 A 
ATOM     11  C   UNL     1     -12.215   6.772   0.699  1.00  0.00     0.126 A 
ATOM     12  C   UNL     1     -11.024   7.381   0.304  1.00  0.00     0.040 A 
ATOM     13  F   UNL     1     -11.000   3.513   1.753  1.00  0.00    -0.206 F 
ATOM     14  F   UNL     1     -13.371   7.441   0.608  1.00  0.00    -0.207 F 
ENDBRANCH   1   7
BRANCH   4  15
ATOM     15  C   UNL     1      -6.837   1.783  -0.685  1.00  0.00     0.339 C 
ATOM     16  O   UNL     1      -5.964   0.926  -0.537  1.00  0.00    -0.246 OA
BRANCH  15  17
ATOM     17  O   UNL     1      -7.688   1.777  -1.747  1.00  0.00    -0.478 OA
ATOM     18  H   UNL     1      -8.564   2.152  -1.516  1.00  0.00     0.297 HD
ENDBRANCH  15  17
ENDBRANCH   4  15
BRANCH   5  19
ATOM     19  O   UNL     1      -4.955   2.608   1.278  1.00  0.00    -0.507 OA
ATOM     20  H   UNL     1      -4.583   2.476   0.389  1.00  0.00     0.293 HD
ENDBRANCH   5  19
TORSDOF 4
ENDMDL
