MODEL 1
REMARK VINA RESULT:    -5.572      0.000      0.000
REMARK INTER + INTRA:          -7.577
REMARK INTER:                  -6.875
REMARK INTRA:                  -0.701
REMARK UNBOUND:                -0.701
REMARK SMILES Cc1ccc(C(=O)c2cc(O)c(O)c([N+](=O)[O-])c2)cc1
REMARK SMILES IDX 8 1 18 2 9 3 14 4 10 5 12 6 6 7 7 8 5 9 4 10 19 11 3 12
REMARK SMILES IDX 20 13 2 14 1 15 15 16 17 17 16 18 11 19 13 21
REMARK H PARENT 11 20 13 22
ROOT
ATOM      1  C   UNL     1      -8.742  -0.634  -1.689  1.00  0.00     0.033 A 
ATOM      2  C   UNL     1      -8.549  -0.131  -0.423  1.00  0.00     0.102 A 
ATOM      3  C   UNL     1      -7.705  -0.910  -2.549  1.00  0.00     0.063 A 
ATOM      4  C   UNL     1      -7.244   0.110   0.007  1.00  0.00     0.315 A 
ATOM      5  C   UNL     1      -6.400  -0.668  -2.119  1.00  0.00     0.165 A 
ATOM      6  C   UNL     1      -6.169  -0.159  -0.840  1.00  0.00     0.237 A 
ENDROOT
BRANCH   1   7
ATOM      7  C   UNL     1     -10.139  -0.892  -2.150  1.00  0.00     0.193 C 
ATOM      8  O   UNL     1     -10.317  -1.845  -2.924  1.00  0.00    -0.289 OA
BRANCH   7   9
ATOM      9  C   UNL     1     -11.264  -0.075  -1.724  1.00  0.00     0.023 A 
ATOM     10  C   UNL     1     -11.758   0.924  -2.563  1.00  0.00     0.012 A 
ATOM     11  C   UNL     1     -11.850  -0.291  -0.477  1.00  0.00     0.012 A 
ATOM     12  C   UNL     1     -12.836   1.708  -2.154  1.00  0.00     0.004 A 
ATOM     13  C   UNL     1     -12.930   0.493  -0.068  1.00  0.00     0.004 A 
ATOM     14  C   UNL     1     -13.423   1.492  -0.907  1.00  0.00    -0.051 A 
ATOM     15  C   UNL     1     -14.576   2.331  -0.470  1.00  0.00     0.044 C 
ENDBRANCH   7   9
ENDBRANCH   1   7
BRANCH   4  16
ATOM     16  N   UNL     1      -7.029   0.630   1.313  1.00  0.00     0.066 N 
ATOM     17  O   UNL     1      -7.844   0.341   2.222  1.00  0.00    -0.258 OA
ATOM     18  O   UNL     1      -6.032   1.360   1.517  1.00  0.00    -0.258 OA
ENDBRANCH   4  16
BRANCH   5  19
ATOM     19  O   UNL     1      -5.360  -0.936  -2.957  1.00  0.00    -0.504 OA
ATOM     20  H   UNL     1      -4.616  -1.297  -2.448  1.00  0.00     0.293 HD
ENDBRANCH   5  19
BRANCH   6  21
ATOM     21  O   UNL     1      -4.888   0.072  -0.431  1.00  0.00    -0.500 OA
ATOM     22  H   UNL     1      -4.303   0.120  -1.203  1.00  0.00     0.294 HD
ENDBRANCH   6  21
TORSDOF 5
ENDMDL
MODEL 2
REMARK VINA RESULT:    -5.570      2.002      3.556
REMARK INTER + INTRA:          -7.574
REMARK INTER:                  -6.839
REMARK INTRA:                  -0.735
REMARK UNBOUND:                -0.701
REMARK SMILES Cc1ccc(C(=O)c2cc(O)c(O)c([N+](=O)[O-])c2)cc1
REMARK SMILES IDX 8 1 18 2 9 3 14 4 10 5 12 6 6 7 7 8 5 9 4 10 19 11 3 12
REMARK SMILES IDX 20 13 2 14 1 15 15 16 17 17 16 18 11 19 13 21
REMARK H PARENT 11 20 13 22
ROOT
ATOM      1  C   UNL     1      -8.860   0.884  -0.806  1.00  0.00     0.033 A 
ATOM      2  C   UNL     1      -8.254   0.361  -1.925  1.00  0.00     0.102 A 
ATOM      3  C   UNL     1      -8.194   1.084   0.379  1.00  0.00     0.063 A 
ATOM      4  C   UNL     1      -6.903   0.020  -1.853  1.00  0.00     0.315 A 
ATOM      5  C   UNL     1      -6.844   0.742   0.452  1.00  0.00     0.165 A 
ATOM      6  C   UNL     1      -6.198   0.210  -0.665  1.00  0.00     0.237 A 
ENDROOT
BRANCH   1   7
ATOM      7  C   UNL     1     -10.307   1.249  -0.883  1.00  0.00     0.193 C 
ATOM      8  O   UNL     1     -10.677   2.246  -0.245  1.00  0.00    -0.289 OA
BRANCH   7   9
ATOM      9  C   UNL     1     -11.264   0.485  -1.668  1.00  0.00     0.023 A 
ATOM     10  C   UNL     1     -12.064  -0.476  -1.049  1.00  0.00     0.012 A 
ATOM     11  C   UNL     1     -11.382   0.712  -3.039  1.00  0.00     0.012 A 
ATOM     12  C   UNL     1     -12.981  -1.209  -1.801  1.00  0.00     0.004 A 
ATOM     13  C   UNL     1     -12.300  -0.021  -3.792  1.00  0.00     0.004 A 
ATOM     14  C   UNL     1     -13.100  -0.982  -3.173  1.00  0.00    -0.051 A 
ATOM     15  C   UNL     1     -14.080  -1.766  -3.977  1.00  0.00     0.044 C 
ENDBRANCH   7   9
ENDBRANCH   1   7
BRANCH   4  16
ATOM     16  N   UNL     1      -6.262  -0.522  -3.001  1.00  0.00     0.066 N 
ATOM     17  O   UNL     1      -5.312  -1.325  -2.842  1.00  0.00    -0.258 OA
ATOM     18  O   UNL     1      -6.665  -0.181  -4.137  1.00  0.00    -0.258 OA
ENDBRANCH   4  16
BRANCH   5  19
ATOM     19  O   UNL     1      -6.167   0.935   1.619  1.00  0.00    -0.504 OA
ATOM     20  H   UNL     1      -6.742   0.710   2.369  1.00  0.00     0.293 HD
ENDBRANCH   5  19
BRANCH   6  21
ATOM     21  O   UNL     1      -4.876  -0.119  -0.582  1.00  0.00    -0.500 OA
ATOM     22  H   UNL     1      -4.787  -1.071  -0.417  1.00  0.00     0.294 HD
ENDBRANCH   6  21
TORSDOF 5
ENDMDL
MODEL 3
REMARK VINA RESULT:    -4.741      3.626      6.570
REMARK INTER + INTRA:          -6.550
REMARK INTER:                  -5.604
REMARK INTRA:                  -0.947
REMARK UNBOUND:                -0.701
REMARK SMILES Cc1ccc(C(=O)c2cc(O)c(O)c([N+](=O)[O-])c2)cc1
REMARK SMILES IDX 8 1 18 2 9 3 14 4 10 5 12 6 6 7 7 8 5 9 4 10 19 11 3 12
REMARK SMILES IDX 20 13 2 14 1 15 15 16 17 17 16 18 11 19 13 21
REMARK H PARENT 11 20 13 22
ROOT
ATOM      1  C   UNL     1     -11.908   0.422  -2.513  1.00  0.00     0.033 A 
ATOM      2  C   UNL     1     -12.609   1.306  -1.726  1.00  0.00     0.102 A 
ATOM      3  C   UNL     1     -12.518  -0.548  -3.272  1.00  0.00     0.063 A 
ATOM      4  C   UNL     1     -14.001   1.214  -1.697  1.00  0.00     0.315 A 
ATOM      5  C   UNL     1     -13.910  -0.640  -3.243  1.00  0.00     0.165 A 
ATOM      6  C   UNL     1     -14.652   0.242  -2.455  1.00  0.00     0.237 A 
ENDROOT
BRANCH   1   7
ATOM      7  C   UNL     1     -10.417   0.520  -2.544  1.00  0.00     0.193 C 
ATOM      8  O   UNL     1      -9.876   0.616  -3.656  1.00  0.00    -0.289 OA
BRANCH   7   9
ATOM      9  C   UNL     1      -9.610   0.507  -1.335  1.00  0.00     0.023 A 
ATOM     10  C   UNL     1      -9.823  -0.472  -0.364  1.00  0.00     0.012 A 
ATOM     11  C   UNL     1      -8.622   1.473  -1.145  1.00  0.00     0.012 A 
ATOM     12  C   UNL     1      -9.048  -0.485   0.795  1.00  0.00     0.004 A 
ATOM     13  C   UNL     1      -7.846   1.460   0.015  1.00  0.00     0.004 A 
ATOM     14  C   UNL     1      -8.060   0.481   0.985  1.00  0.00    -0.051 A 
ATOM     15  C   UNL     1      -7.233   0.468   2.226  1.00  0.00     0.044 C 
ENDBRANCH   7   9
ENDBRANCH   1   7
BRANCH   4  16
ATOM     16  N   UNL     1     -14.739   2.121  -0.889  1.00  0.00     0.066 N 
ATOM     17  O   UNL     1     -14.219   2.553   0.168  1.00  0.00    -0.258 OA
ATOM     18  O   UNL     1     -15.887   2.464  -1.256  1.00  0.00    -0.258 OA
ENDBRANCH   4  16
BRANCH   5  19
ATOM     19  O   UNL     1     -14.532  -1.596  -3.989  1.00  0.00    -0.504 OA
ATOM     20  H   UNL     1     -14.124  -2.460  -3.817  1.00  0.00     0.293 HD
ENDBRANCH   5  19
BRANCH   6  21
ATOM     21  O   UNL     1     -16.012   0.142  -2.436  1.00  0.00    -0.500 OA
ATOM     22  H   UNL     1     -16.365   0.320  -3.321  1.00  0.00     0.294 HD
ENDBRANCH   6  21
TORSDOF 5
ENDMDL
MODEL 4
REMARK VINA RESULT:    -4.715      3.711      6.920
REMARK INTER + INTRA:          -6.519
REMARK INTER:                  -5.542
REMARK INTRA:                  -0.977
REMARK UNBOUND:                -0.701
REMARK SMILES Cc1ccc(C(=O)c2cc(O)c(O)c([N+](=O)[O-])c2)cc1
REMARK SMILES IDX 8 1 18 2 9 3 14 4 10 5 12 6 6 7 7 8 5 9 4 10 19 11 3 12
REMARK SMILES IDX 20 13 2 14 1 15 15 16 17 17 16 18 11 19 13 21
REMARK H PARENT 11 20 13 22
ROOT
ATOM      1  C   UNL     1     -12.217  -0.048  -1.327  1.00  0.00     0.033 A 
ATOM      2  C   UNL     1     -13.031   0.987  -0.929  1.00  0.00     0.102 A 
ATOM      3  C   UNL     1     -12.600  -0.983  -2.259  1.00  0.00     0.063 A 
ATOM      4  C   UNL     1     -14.300   1.093  -1.498  1.00  0.00     0.315 A 
ATOM      5  C   UNL     1     -13.870  -0.877  -2.827  1.00  0.00     0.165 A 
ATOM      6  C   UNL     1     -14.720   0.162  -2.446  1.00  0.00     0.237 A 
ENDROOT
BRANCH   1   7
ATOM      7  C   UNL     1     -10.857  -0.162  -0.718  1.00  0.00     0.193 C 
ATOM      8  O   UNL     1     -10.791  -0.213   0.519  1.00  0.00    -0.289 OA
BRANCH   7   9
ATOM      9  C   UNL     1      -9.646  -0.214  -1.520  1.00  0.00     0.023 A 
ATOM     10  C   UNL     1      -8.723  -1.241  -1.324  1.00  0.00     0.012 A 
ATOM     11  C   UNL     1      -9.407   0.763  -2.487  1.00  0.00     0.012 A 
ATOM     12  C   UNL     1      -7.561  -1.291  -2.094  1.00  0.00     0.004 A 
ATOM     13  C   UNL     1      -8.244   0.714  -3.257  1.00  0.00     0.004 A 
ATOM     14  C   UNL     1      -7.321  -0.314  -3.061  1.00  0.00    -0.051 A 
ATOM     15  C   UNL     1      -6.078  -0.366  -3.883  1.00  0.00     0.044 C 
ENDBRANCH   7   9
ENDBRANCH   1   7
BRANCH   4  16
ATOM     16  N   UNL     1     -15.153   2.159  -1.097  1.00  0.00     0.066 N 
ATOM     17  O   UNL     1     -14.637   3.235  -0.712  1.00  0.00    -0.258 OA
ATOM     18  O   UNL     1     -16.394   1.991  -1.141  1.00  0.00    -0.258 OA
ENDBRANCH   4  16
BRANCH   5  19
ATOM     19  O   UNL     1     -14.267  -1.795  -3.753  1.00  0.00    -0.504 OA
ATOM     20  H   UNL     1     -13.715  -1.714  -4.548  1.00  0.00     0.293 HD
ENDBRANCH   5  19
BRANCH   6  21
ATOM     21  O   UNL     1     -15.960   0.255  -3.010  1.00  0.00    -0.500 OA
ATOM     22  H   UNL     1     -16.522   0.831  -2.468  1.00  0.00     0.294 HD
ENDBRANCH   6  21
TORSDOF 5
ENDMDL
MODEL 5
REMARK VINA RESULT:    -4.709      3.508      7.205
REMARK INTER + INTRA:          -6.511
REMARK INTER:                  -5.548
REMARK INTRA:                  -0.964
REMARK UNBOUND:                -0.701
REMARK SMILES Cc1ccc(C(=O)c2cc(O)c(O)c([N+](=O)[O-])c2)cc1
REMARK SMILES IDX 8 1 18 2 9 3 14 4 10 5 12 6 6 7 7 8 5 9 4 10 19 11 3 12
REMARK SMILES IDX 20 13 2 14 1 15 15 16 17 17 16 18 11 19 13 21
REMARK H PARENT 11 20 13 22
ROOT
ATOM      1  C   UNL     1     -12.195   0.081  -1.202  1.00  0.00     0.033 A 
ATOM      2  C   UNL     1     -12.593  -0.795  -2.185  1.00  0.00     0.102 A 
ATOM      3  C   UNL     1     -13.004   1.084  -0.723  1.00  0.00     0.063 A 
ATOM      4  C   UNL     1     -13.875  -0.661  -2.718  1.00  0.00     0.315 A 
ATOM      5  C   UNL     1     -14.286   1.218  -1.256  1.00  0.00     0.165 A 
ATOM      6  C   UNL     1     -14.722   0.345  -2.254  1.00  0.00     0.237 A 
ENDROOT
BRANCH   1   7
ATOM      7  C   UNL     1     -10.821  -0.062  -0.632  1.00  0.00     0.193 C 
ATOM      8  O   UNL     1     -10.720  -0.102   0.604  1.00  0.00    -0.289 OA
BRANCH   7   9
ATOM      9  C   UNL     1      -9.635  -0.153  -1.468  1.00  0.00     0.023 A 
ATOM     10  C   UNL     1      -8.746  -1.215  -1.304  1.00  0.00     0.012 A 
ATOM     11  C   UNL     1      -9.386   0.821  -2.434  1.00  0.00     0.012 A 
ATOM     12  C   UNL     1      -7.608  -1.303  -2.106  1.00  0.00     0.004 A 
ATOM     13  C   UNL     1      -8.248   0.735  -3.237  1.00  0.00     0.004 A 
ATOM     14  C   UNL     1      -7.359  -0.328  -3.073  1.00  0.00    -0.051 A 
ATOM     15  C   UNL     1      -6.142  -0.421  -3.930  1.00  0.00     0.044 C 
ENDBRANCH   7   9
ENDBRANCH   1   7
BRANCH   4  16
ATOM     16  N   UNL     1     -14.302  -1.559  -3.734  1.00  0.00     0.066 N 
ATOM     17  O   UNL     1     -15.515  -1.872  -3.797  1.00  0.00    -0.258 OA
ATOM     18  O   UNL     1     -13.453  -2.011  -4.538  1.00  0.00    -0.258 OA
ENDBRANCH   4  16
BRANCH   5  19
ATOM     19  O   UNL     1     -15.103   2.206  -0.792  1.00  0.00    -0.504 OA
ATOM     20  H   UNL     1     -14.748   2.556   0.041  1.00  0.00     0.293 HD
ENDBRANCH   5  19
BRANCH   6  21
ATOM     21  O   UNL     1     -15.979   0.487  -2.767  1.00  0.00    -0.500 OA
ATOM     22  H   UNL     1     -16.154   1.423  -2.947  1.00  0.00     0.294 HD
ENDBRANCH   6  21
TORSDOF 5
ENDMDL
MODEL 6
REMARK VINA RESULT:    -4.638      3.750      6.970
REMARK INTER + INTRA:          -6.424
REMARK INTER:                  -5.468
REMARK INTRA:                  -0.956
REMARK UNBOUND:                -0.701
REMARK SMILES Cc1ccc(C(=O)c2cc(O)c(O)c([N+](=O)[O-])c2)cc1
REMARK SMILES IDX 8 1 18 2 9 3 14 4 10 5 12 6 6 7 7 8 5 9 4 10 19 11 3 12
REMARK SMILES IDX 20 13 2 14 1 15 15 16 17 17 16 18 11 19 13 21
REMARK H PARENT 11 20 13 22
ROOT
ATOM      1  C   UNL     1     -11.925   0.431  -2.477  1.00  0.00     0.033 A 
ATOM      2  C   UNL     1     -12.558  -0.553  -3.200  1.00  0.00     0.102 A 
ATOM      3  C   UNL     1     -12.604   1.351  -1.714  1.00  0.00     0.063 A 
ATOM      4  C   UNL     1     -13.950  -0.621  -3.157  1.00  0.00     0.315 A 
ATOM      5  C   UNL     1     -13.997   1.284  -1.672  1.00  0.00     0.165 A 
ATOM      6  C   UNL     1     -14.671   0.297  -2.393  1.00  0.00     0.237 A 
ENDROOT
BRANCH   1   7
ATOM      7  C   UNL     1     -10.433   0.504  -2.523  1.00  0.00     0.193 C 
ATOM      8  O   UNL     1      -9.901   0.574  -3.641  1.00  0.00    -0.289 OA
BRANCH   7   9
ATOM      9  C   UNL     1      -9.615   0.497  -1.321  1.00  0.00     0.023 A 
ATOM     10  C   UNL     1      -8.620   1.460  -1.148  1.00  0.00     0.012 A 
ATOM     11  C   UNL     1      -9.824  -0.473  -0.340  1.00  0.00     0.012 A 
ATOM     12  C   UNL     1      -7.836   1.452   0.005  1.00  0.00     0.004 A 
ATOM     13  C   UNL     1      -9.040  -0.481   0.813  1.00  0.00     0.004 A 
ATOM     14  C   UNL     1      -8.045   0.482   0.986  1.00  0.00    -0.051 A 
ATOM     15  C   UNL     1      -7.205   0.474   2.218  1.00  0.00     0.044 C 
ENDBRANCH   7   9
ENDBRANCH   1   7
BRANCH   4  16
ATOM     16  N   UNL     1     -14.619  -1.633  -3.899  1.00  0.00     0.066 N 
ATOM     17  O   UNL     1     -15.683  -1.343  -4.497  1.00  0.00    -0.258 OA
ATOM     18  O   UNL     1     -14.125  -2.784  -3.935  1.00  0.00    -0.258 OA
ENDBRANCH   4  16
BRANCH   5  19
ATOM     19  O   UNL     1     -14.688   2.187  -0.921  1.00  0.00    -0.504 OA
ATOM     20  H   UNL     1     -14.075   2.652  -0.327  1.00  0.00     0.293 HD
ENDBRANCH   5  19
BRANCH   6  21
ATOM     21  O   UNL     1     -16.033   0.241  -2.343  1.00  0.00    -0.500 OA
ATOM     22  H   UNL     1     -16.340  -0.590  -2.738  1.00  0.00     0.294 HD
ENDBRANCH   6  21
TORSDOF 5
ENDMDL
MODEL 7
REMARK VINA RESULT:    -4.608      2.227      3.915
REMARK INTER + INTRA:          -6.387
REMARK INTER:                  -5.381
REMARK INTRA:                  -1.006
REMARK UNBOUND:                -0.701
REMARK SMILES Cc1ccc(C(=O)c2cc(O)c(O)c([N+](=O)[O-])c2)cc1
REMARK SMILES IDX 8 1 18 2 9 3 14 4 10 5 12 6 6 7 7 8 5 9 4 10 19 11 3 12
REMARK SMILES IDX 20 13 2 14 1 15 15 16 17 17 16 18 11 19 13 21
REMARK H PARENT 11 20 13 22
ROOT
ATOM      1  C   UNL     1     -11.852  -0.014  -0.879  1.00  0.00     0.033 A 
ATOM      2  C   UNL     1     -10.577   0.346  -1.251  1.00  0.00     0.102 A 
ATOM      3  C   UNL     1     -12.121  -0.742   0.256  1.00  0.00     0.063 A 
ATOM      4  C   UNL     1      -9.511  -0.044  -0.441  1.00  0.00     0.315 A 
ATOM      5  C   UNL     1     -11.054  -1.133   1.066  1.00  0.00     0.165 A 
ATOM      6  C   UNL     1      -9.749  -0.783   0.718  1.00  0.00     0.237 A 
ENDROOT
BRANCH   1   7
ATOM      7  C   UNL     1     -12.994   0.404  -1.747  1.00  0.00     0.193 C 
ATOM      8  O   UNL     1     -13.132  -0.187  -2.828  1.00  0.00    -0.289 OA
BRANCH   7   9
ATOM      9  C   UNL     1     -13.920   1.457  -1.363  1.00  0.00     0.023 A 
ATOM     10  C   UNL     1     -15.287   1.190  -1.287  1.00  0.00     0.012 A 
ATOM     11  C   UNL     1     -13.442   2.734  -1.070  1.00  0.00     0.012 A 
ATOM     12  C   UNL     1     -16.176   2.200  -0.919  1.00  0.00     0.004 A 
ATOM     13  C   UNL     1     -14.331   3.745  -0.702  1.00  0.00     0.004 A 
ATOM     14  C   UNL     1     -15.698   3.478  -0.626  1.00  0.00    -0.051 A 
ATOM     15  C   UNL     1     -16.648   4.558  -0.233  1.00  0.00     0.044 C 
ENDBRANCH   7   9
ENDBRANCH   1   7
BRANCH   4  16
ATOM     16  N   UNL     1      -8.188   0.321  -0.812  1.00  0.00     0.066 N 
ATOM     17  O   UNL     1      -7.278  -0.541  -0.739  1.00  0.00    -0.258 OA
ATOM     18  O   UNL     1      -7.969   1.491  -1.202  1.00  0.00    -0.258 OA
ENDBRANCH   4  16
BRANCH   5  19
ATOM     19  O   UNL     1     -11.302  -1.854   2.195  1.00  0.00    -0.504 OA
ATOM     20  H   UNL     1     -12.227  -2.151   2.195  1.00  0.00     0.293 HD
ENDBRANCH   5  19
BRANCH   6  21
ATOM     21  O   UNL     1      -8.714  -1.171   1.519  1.00  0.00    -0.500 OA
ATOM     22  H   UNL     1      -8.042  -0.472   1.544  1.00  0.00     0.294 HD
ENDBRANCH   6  21
TORSDOF 5
ENDMDL
MODEL 8
REMARK VINA RESULT:    -4.601      2.069      2.590
REMARK INTER + INTRA:          -6.378
REMARK INTER:                  -6.218
REMARK INTRA:                  -0.160
REMARK UNBOUND:                -0.701
REMARK SMILES Cc1ccc(C(=O)c2cc(O)c(O)c([N+](=O)[O-])c2)cc1
REMARK SMILES IDX 8 1 18 2 9 3 14 4 10 5 12 6 6 7 7 8 5 9 4 10 19 11 3 12
REMARK SMILES IDX 20 13 2 14 1 15 15 16 17 17 16 18 11 19 13 21
REMARK H PARENT 11 20 13 22
ROOT
ATOM      1  C   UNL     1      -9.622   0.786  -1.110  1.00  0.00     0.033 A 
ATOM      2  C   UNL     1      -8.929   0.782   0.079  1.00  0.00     0.102 A 
ATOM      3  C   UNL     1      -9.014   0.596  -2.328  1.00  0.00     0.063 A 
ATOM      4  C   UNL     1      -7.550   0.575   0.046  1.00  0.00     0.315 A 
ATOM      5  C   UNL     1      -7.635   0.389  -2.361  1.00  0.00     0.165 A 
ATOM      6  C   UNL     1      -6.903   0.378  -1.173  1.00  0.00     0.237 A 
ENDROOT
BRANCH   1   7
ATOM      7  C   UNL     1     -11.099   1.008  -1.076  1.00  0.00     0.193 C 
ATOM      8  O   UNL     1     -11.523   1.898  -0.323  1.00  0.00    -0.289 OA
BRANCH   7   9
ATOM      9  C   UNL     1     -12.024   0.228  -1.882  1.00  0.00     0.023 A 
ATOM     10  C   UNL     1     -13.378   0.560  -1.907  1.00  0.00     0.012 A 
ATOM     11  C   UNL     1     -11.557  -0.853  -2.630  1.00  0.00     0.012 A 
ATOM     12  C   UNL     1     -14.265  -0.188  -2.681  1.00  0.00     0.004 A 
ATOM     13  C   UNL     1     -12.444  -1.602  -3.404  1.00  0.00     0.004 A 
ATOM     14  C   UNL     1     -13.798  -1.270  -3.429  1.00  0.00    -0.051 A 
ATOM     15  C   UNL     1     -14.747  -2.070  -4.255  1.00  0.00     0.044 C 
ENDBRANCH   7   9
ENDBRANCH   1   7
BRANCH   4  16
ATOM     16  N   UNL     1      -6.821   0.568   1.267  1.00  0.00     0.066 N 
ATOM     17  O   UNL     1      -5.834   1.333   1.388  1.00  0.00    -0.258 OA
ATOM     18  O   UNL     1      -7.185  -0.202   2.186  1.00  0.00    -0.258 OA
ENDBRANCH   4  16
BRANCH   5  19
ATOM     19  O   UNL     1      -7.016   0.198  -3.560  1.00  0.00    -0.504 OA
ATOM     20  H   UNL     1      -7.352  -0.614  -3.974  1.00  0.00     0.293 HD
ENDBRANCH   5  19
BRANCH   6  21
ATOM     21  O   UNL     1      -5.554   0.174  -1.218  1.00  0.00    -0.500 OA
ATOM     22  H   UNL     1      -5.236   0.296  -2.126  1.00  0.00     0.294 HD
ENDBRANCH   6  21
TORSDOF 5
ENDMDL
MODEL 9
REMARK VINA RESULT:    -4.601      1.461      2.790
REMARK INTER + INTRA:          -6.378
REMARK INTER:                  -6.209
REMARK INTRA:                  -0.169
REMARK UNBOUND:                -0.701
REMARK SMILES Cc1ccc(C(=O)c2cc(O)c(O)c([N+](=O)[O-])c2)cc1
REMARK SMILES IDX 8 1 18 2 9 3 14 4 10 5 12 6 6 7 7 8 5 9 4 10 19 11 3 12
REMARK SMILES IDX 20 13 2 14 1 15 15 16 17 17 16 18 11 19 13 21
REMARK H PARENT 11 20 13 22
ROOT
ATOM      1  C   UNL     1      -9.569  -0.493  -1.670  1.00  0.00     0.033 A 
ATOM      2  C   UNL     1      -8.497  -0.546  -2.530  1.00  0.00     0.102 A 
ATOM      3  C   UNL     1      -9.429  -0.331  -0.312  1.00  0.00     0.063 A 
ATOM      4  C   UNL     1      -7.211  -0.429  -2.002  1.00  0.00     0.315 A 
ATOM      5  C   UNL     1      -8.143  -0.214   0.217  1.00  0.00     0.165 A 
ATOM      6  C   UNL     1      -7.034  -0.263  -0.628  1.00  0.00     0.237 A 
ENDROOT
BRANCH   1   7
ATOM      7  C   UNL     1     -10.946  -0.619  -2.236  1.00  0.00     0.193 C 
ATOM      8  O   UNL     1     -11.126  -1.484  -3.106  1.00  0.00    -0.289 OA
BRANCH   7   9
ATOM      9  C   UNL     1     -12.047   0.225  -1.801  1.00  0.00     0.023 A 
ATOM     10  C   UNL     1     -13.341  -0.026  -2.259  1.00  0.00     0.012 A 
ATOM     11  C   UNL     1     -11.811   1.285  -0.927  1.00  0.00     0.012 A 
ATOM     12  C   UNL     1     -14.397   0.784  -1.843  1.00  0.00     0.004 A 
ATOM     13  C   UNL     1     -12.867   2.095  -0.509  1.00  0.00     0.004 A 
ATOM     14  C   UNL     1     -14.161   1.844  -0.967  1.00  0.00    -0.051 A 
ATOM     15  C   UNL     1     -15.290   2.710  -0.523  1.00  0.00     0.044 C 
ENDBRANCH   7   9
ENDBRANCH   1   7
BRANCH   4  16
ATOM     16  N   UNL     1      -6.093  -0.481  -2.879  1.00  0.00     0.066 N 
ATOM     17  O   UNL     1      -5.180  -1.310  -2.647  1.00  0.00    -0.258 OA
ATOM     18  O   UNL     1      -6.053   0.301  -3.857  1.00  0.00    -0.258 OA
ENDBRANCH   4  16
BRANCH   5  19
ATOM     19  O   UNL     1      -7.985  -0.052   1.561  1.00  0.00    -0.504 OA
ATOM     20  H   UNL     1      -8.844  -0.148   2.003  1.00  0.00     0.293 HD
ENDBRANCH   5  19
BRANCH   6  21
ATOM     21  O   UNL     1      -5.781  -0.147  -0.099  1.00  0.00    -0.500 OA
ATOM     22  H   UNL     1      -5.622  -0.872   0.524  1.00  0.00     0.294 HD
ENDBRANCH   6  21
TORSDOF 5
ENDMDL
