MODEL 1
REMARK VINA RESULT:    -5.047      0.000      0.000
REMARK INTER + INTRA:          -7.034
REMARK INTER:                  -6.228
REMARK INTRA:                  -0.806
REMARK UNBOUND:                -0.806
REMARK SMILES Cc1ccc(C(=O)c2cc(O)c(O)c([N+](=O)[O-])c2)cc1
REMARK SMILES IDX 8 1 18 2 9 3 14 4 10 5 12 6 6 7 7 8 5 9 4 10 19 11 3 12
REMARK SMILES IDX 20 13 2 14 1 15 15 16 17 17 16 18 11 19 13 21
REMARK H PARENT 11 20 13 22
ROOT
ATOM      1  C   UNL     1      -6.895   4.673   0.093  1.00  0.00     0.033 A 
ATOM      2  C   UNL     1      -6.982   3.307  -0.047  1.00  0.00     0.102 A 
ATOM      3  C   UNL     1      -5.712   5.323   0.354  1.00  0.00     0.063 A 
ATOM      4  C   UNL     1      -5.819   2.549   0.080  1.00  0.00     0.315 A 
ATOM      5  C   UNL     1      -4.548   4.564   0.481  1.00  0.00     0.165 A 
ATOM      6  C   UNL     1      -4.602   3.176   0.344  1.00  0.00     0.237 A 
ENDROOT
BRANCH   1   7
ATOM      7  C   UNL     1      -8.141   5.486  -0.042  1.00  0.00     0.193 C 
ATOM      8  O   UNL     1      -8.051   6.570  -0.640  1.00  0.00    -0.289 OA
BRANCH   7   9
ATOM      9  C   UNL     1      -9.420   5.049   0.494  1.00  0.00     0.023 A 
ATOM     10  C   UNL     1      -9.806   5.433   1.778  1.00  0.00     0.012 A 
ATOM     11  C   UNL     1     -10.261   4.245  -0.276  1.00  0.00     0.012 A 
ATOM     12  C   UNL     1     -11.033   5.013   2.292  1.00  0.00     0.004 A 
ATOM     13  C   UNL     1     -11.488   3.825   0.238  1.00  0.00     0.004 A 
ATOM     14  C   UNL     1     -11.875   4.209   1.522  1.00  0.00    -0.051 A 
ATOM     15  C   UNL     1     -13.185   3.760   2.073  1.00  0.00     0.044 C 
ENDBRANCH   7   9
ENDBRANCH   1   7
BRANCH   4  16
ATOM     16  N   UNL     1      -5.893   1.136  -0.063  1.00  0.00     0.066 N 
ATOM     17  O   UNL     1      -5.202   0.413   0.695  1.00  0.00    -0.258 OA
ATOM     18  O   UNL     1      -6.647   0.654  -0.940  1.00  0.00    -0.258 OA
ENDBRANCH   4  16
BRANCH   5  19
ATOM     19  O   UNL     1      -3.366   5.191   0.739  1.00  0.00    -0.504 OA
ATOM     20  H   UNL     1      -2.981   5.513  -0.093  1.00  0.00     0.293 HD
ENDBRANCH   5  19
BRANCH   6  21
ATOM     21  O   UNL     1      -3.457   2.445   0.470  1.00  0.00    -0.500 OA
ATOM     22  H   UNL     1      -2.692   2.991   0.228  1.00  0.00     0.294 HD
ENDBRANCH   6  21
TORSDOF 5
ENDMDL
MODEL 2
REMARK VINA RESULT:    -5.044      2.049      3.557
REMARK INTER + INTRA:          -7.029
REMARK INTER:                  -6.241
REMARK INTRA:                  -0.788
REMARK UNBOUND:                -0.806
REMARK SMILES Cc1ccc(C(=O)c2cc(O)c(O)c([N+](=O)[O-])c2)cc1
REMARK SMILES IDX 8 1 18 2 9 3 14 4 10 5 12 6 6 7 7 8 5 9 4 10 19 11 3 12
REMARK SMILES IDX 20 13 2 14 1 15 15 16 17 17 16 18 11 19 13 21
REMARK H PARENT 11 20 13 22
ROOT
ATOM      1  C   UNL     1      -7.364   3.289   1.158  1.00  0.00     0.033 A 
ATOM      2  C   UNL     1      -6.497   4.356   1.199  1.00  0.00     0.102 A 
ATOM      3  C   UNL     1      -6.957   2.007   0.873  1.00  0.00     0.063 A 
ATOM      4  C   UNL     1      -5.145   4.127   0.942  1.00  0.00     0.315 A 
ATOM      5  C   UNL     1      -5.605   1.778   0.616  1.00  0.00     0.165 A 
ATOM      6  C   UNL     1      -4.699   2.839   0.650  1.00  0.00     0.237 A 
ENDROOT
BRANCH   1   7
ATOM      7  C   UNL     1      -8.812   3.534   1.433  1.00  0.00     0.193 C 
ATOM      8  O   UNL     1      -9.435   2.646   2.034  1.00  0.00    -0.289 OA
BRANCH   7   9
ATOM      9  C   UNL     1      -9.488   4.755   1.024  1.00  0.00     0.023 A 
ATOM     10  C   UNL     1     -10.162   4.804  -0.196  1.00  0.00     0.012 A 
ATOM     11  C   UNL     1      -9.462   5.877   1.852  1.00  0.00     0.012 A 
ATOM     12  C   UNL     1     -10.811   5.975  -0.587  1.00  0.00     0.004 A 
ATOM     13  C   UNL     1     -10.110   7.049   1.461  1.00  0.00     0.004 A 
ATOM     14  C   UNL     1     -10.785   7.098   0.241  1.00  0.00    -0.051 A 
ATOM     15  C   UNL     1     -11.477   8.350  -0.179  1.00  0.00     0.044 C 
ENDBRANCH   7   9
ENDBRANCH   1   7
BRANCH   4  16
ATOM     16  N   UNL     1      -4.237   5.220   0.981  1.00  0.00     0.066 N 
ATOM     17  O   UNL     1      -4.472   6.177   1.759  1.00  0.00    -0.258 OA
ATOM     18  O   UNL     1      -3.227   5.196   0.239  1.00  0.00    -0.258 OA
ENDBRANCH   4  16
BRANCH   5  19
ATOM     19  O   UNL     1      -5.183   0.514   0.333  1.00  0.00    -0.504 OA
ATOM     20  H   UNL     1      -5.118   0.001   1.155  1.00  0.00     0.293 HD
ENDBRANCH   5  19
BRANCH   6  21
ATOM     21  O   UNL     1      -3.379   2.602   0.397  1.00  0.00    -0.500 OA
ATOM     22  H   UNL     1      -3.295   1.953  -0.319  1.00  0.00     0.294 HD
ENDBRANCH   6  21
TORSDOF 5
ENDMDL
MODEL 3
REMARK VINA RESULT:    -4.619      3.583      4.442
REMARK INTER + INTRA:          -6.505
REMARK INTER:                  -5.529
REMARK INTRA:                  -0.976
REMARK UNBOUND:                -0.806
REMARK SMILES Cc1ccc(C(=O)c2cc(O)c(O)c([N+](=O)[O-])c2)cc1
REMARK SMILES IDX 8 1 18 2 9 3 14 4 10 5 12 6 6 7 7 8 5 9 4 10 19 11 3 12
REMARK SMILES IDX 20 13 2 14 1 15 15 16 17 17 16 18 11 19 13 21
REMARK H PARENT 11 20 13 22
ROOT
ATOM      1  C   UNL     1      -9.747   5.725   1.562  1.00  0.00     0.033 A 
ATOM      2  C   UNL     1      -8.873   4.879   0.921  1.00  0.00     0.102 A 
ATOM      3  C   UNL     1      -9.411   6.427   2.695  1.00  0.00     0.063 A 
ATOM      4  C   UNL     1      -7.588   4.727   1.442  1.00  0.00     0.315 A 
ATOM      5  C   UNL     1      -8.126   6.275   3.218  1.00  0.00     0.165 A 
ATOM      6  C   UNL     1      -7.214   5.425   2.590  1.00  0.00     0.237 A 
ENDROOT
BRANCH   1   7
ATOM      7  C   UNL     1     -11.124   5.888   1.004  1.00  0.00     0.193 C 
ATOM      8  O   UNL     1     -11.922   4.954   1.178  1.00  0.00    -0.289 OA
BRANCH   7   9
ATOM      9  C   UNL     1     -11.537   7.081   0.283  1.00  0.00     0.023 A 
ATOM     10  C   UNL     1     -12.659   7.795   0.701  1.00  0.00     0.012 A 
ATOM     11  C   UNL     1     -10.810   7.511  -0.828  1.00  0.00     0.012 A 
ATOM     12  C   UNL     1     -13.055   8.940   0.009  1.00  0.00     0.004 A 
ATOM     13  C   UNL     1     -11.206   8.656  -1.520  1.00  0.00     0.004 A 
ATOM     14  C   UNL     1     -12.328   9.371  -1.102  1.00  0.00    -0.051 A 
ATOM     15  C   UNL     1     -12.752  10.593  -1.842  1.00  0.00     0.044 C 
ENDBRANCH   7   9
ENDBRANCH   1   7
BRANCH   4  16
ATOM     16  N   UNL     1      -6.673   3.856   0.790  1.00  0.00     0.066 N 
ATOM     17  O   UNL     1      -6.511   3.965  -0.449  1.00  0.00    -0.258 OA
ATOM     18  O   UNL     1      -6.054   3.006   1.472  1.00  0.00    -0.258 OA
ENDBRANCH   4  16
BRANCH   5  19
ATOM     19  O   UNL     1      -7.775   6.964   4.340  1.00  0.00    -0.504 OA
ATOM     20  H   UNL     1      -8.554   7.077   4.909  1.00  0.00     0.293 HD
ENDBRANCH   5  19
BRANCH   6  21
ATOM     21  O   UNL     1      -5.960   5.285   3.110  1.00  0.00    -0.500 OA
ATOM     22  H   UNL     1      -5.340   5.041   2.405  1.00  0.00     0.294 HD
ENDBRANCH   6  21
TORSDOF 5
ENDMDL
MODEL 4
REMARK VINA RESULT:    -4.588      1.827      2.350
REMARK INTER + INTRA:          -6.467
REMARK INTER:                  -5.836
REMARK INTRA:                  -0.631
REMARK UNBOUND:                -0.806
REMARK SMILES Cc1ccc(C(=O)c2cc(O)c(O)c([N+](=O)[O-])c2)cc1
REMARK SMILES IDX 8 1 18 2 9 3 14 4 10 5 12 6 6 7 7 8 5 9 4 10 19 11 3 12
REMARK SMILES IDX 20 13 2 14 1 15 15 16 17 17 16 18 11 19 13 21
REMARK H PARENT 11 20 13 22
ROOT
ATOM      1  C   UNL     1      -6.255   4.305   1.771  1.00  0.00     0.033 A 
ATOM      2  C   UNL     1      -6.421   2.973   1.469  1.00  0.00     0.102 A 
ATOM      3  C   UNL     1      -5.147   5.024   1.391  1.00  0.00     0.063 A 
ATOM      4  C   UNL     1      -5.421   2.324   0.745  1.00  0.00     0.315 A 
ATOM      5  C   UNL     1      -4.146   4.375   0.667  1.00  0.00     0.165 A 
ATOM      6  C   UNL     1      -4.284   3.024   0.344  1.00  0.00     0.237 A 
ENDROOT
BRANCH   1   7
ATOM      7  C   UNL     1      -7.326   5.001   2.547  1.00  0.00     0.193 C 
ATOM      8  O   UNL     1      -7.143   5.146   3.765  1.00  0.00    -0.289 OA
BRANCH   7   9
ATOM      9  C   UNL     1      -8.542   5.498   1.924  1.00  0.00     0.023 A 
ATOM     10  C   UNL     1      -9.069   4.850   0.806  1.00  0.00     0.012 A 
ATOM     11  C   UNL     1      -9.183   6.622   2.444  1.00  0.00     0.012 A 
ATOM     12  C   UNL     1     -10.235   5.328   0.209  1.00  0.00     0.004 A 
ATOM     13  C   UNL     1     -10.350   7.100   1.847  1.00  0.00     0.004 A 
ATOM     14  C   UNL     1     -10.877   6.452   0.729  1.00  0.00    -0.051 A 
ATOM     15  C   UNL     1     -12.123   6.963   0.090  1.00  0.00     0.044 C 
ENDBRANCH   7   9
ENDBRANCH   1   7
BRANCH   4  16
ATOM     16  N   UNL     1      -5.579   0.948   0.425  1.00  0.00     0.066 N 
ATOM     17  O   UNL     1      -6.579   0.591  -0.244  1.00  0.00    -0.258 OA
ATOM     18  O   UNL     1      -4.714   0.131   0.820  1.00  0.00    -0.258 OA
ENDBRANCH   4  16
BRANCH   5  19
ATOM     19  O   UNL     1      -3.041   5.072   0.281  1.00  0.00    -0.504 OA
ATOM     20  H   UNL     1      -2.631   5.488   1.057  1.00  0.00     0.293 HD
ENDBRANCH   5  19
BRANCH   6  21
ATOM     21  O   UNL     1      -3.299   2.400  -0.365  1.00  0.00    -0.500 OA
ATOM     22  H   UNL     1      -3.489   1.451  -0.422  1.00  0.00     0.294 HD
ENDBRANCH   6  21
TORSDOF 5
ENDMDL
MODEL 5
REMARK VINA RESULT:    -4.555      3.517      7.165
REMARK INTER + INTRA:          -6.427
REMARK INTER:                  -5.450
REMARK INTRA:                  -0.977
REMARK UNBOUND:                -0.806
REMARK SMILES Cc1ccc(C(=O)c2cc(O)c(O)c([N+](=O)[O-])c2)cc1
REMARK SMILES IDX 8 1 18 2 9 3 14 4 10 5 12 6 6 7 7 8 5 9 4 10 19 11 3 12
REMARK SMILES IDX 20 13 2 14 1 15 15 16 17 17 16 18 11 19 13 21
REMARK H PARENT 11 20 13 22
ROOT
ATOM      1  C   UNL     1     -10.373   4.713   0.248  1.00  0.00     0.033 A 
ATOM      2  C   UNL     1     -10.519   6.052  -0.030  1.00  0.00     0.102 A 
ATOM      3  C   UNL     1     -11.336   3.976   0.895  1.00  0.00     0.063 A 
ATOM      4  C   UNL     1     -11.696   6.690   0.360  1.00  0.00     0.315 A 
ATOM      5  C   UNL     1     -12.514   4.614   1.286  1.00  0.00     0.165 A 
ATOM      6  C   UNL     1     -12.694   5.972   1.018  1.00  0.00     0.237 A 
ENDROOT
BRANCH   1   7
ATOM      7  C   UNL     1      -9.112   4.029  -0.170  1.00  0.00     0.193 C 
ATOM      8  O   UNL     1      -9.219   3.048  -0.921  1.00  0.00    -0.289 OA
BRANCH   7   9
ATOM      9  C   UNL     1      -7.800   4.475   0.272  1.00  0.00     0.023 A 
ATOM     10  C   UNL     1      -6.775   4.652  -0.658  1.00  0.00     0.012 A 
ATOM     11  C   UNL     1      -7.567   4.727   1.623  1.00  0.00     0.012 A 
ATOM     12  C   UNL     1      -5.517   5.080  -0.234  1.00  0.00     0.004 A 
ATOM     13  C   UNL     1      -6.309   5.155   2.047  1.00  0.00     0.004 A 
ATOM     14  C   UNL     1      -5.283   5.332   1.118  1.00  0.00    -0.051 A 
ATOM     15  C   UNL     1      -3.938   5.788   1.570  1.00  0.00     0.044 C 
ENDBRANCH   7   9
ENDBRANCH   1   7
BRANCH   4  16
ATOM     16  N   UNL     1     -11.861   8.074   0.079  1.00  0.00     0.066 N 
ATOM     17  O   UNL     1     -10.847   8.812   0.052  1.00  0.00    -0.258 OA
ATOM     18  O   UNL     1     -13.014   8.515  -0.134  1.00  0.00    -0.258 OA
ENDBRANCH   4  16
BRANCH   5  19
ATOM     19  O   UNL     1     -13.480   3.899   1.928  1.00  0.00    -0.504 OA
ATOM     20  H   UNL     1     -13.834   4.421   2.668  1.00  0.00     0.293 HD
ENDBRANCH   5  19
BRANCH   6  21
ATOM     21  O   UNL     1     -13.850   6.585   1.405  1.00  0.00    -0.500 OA
ATOM     22  H   UNL     1     -14.609   6.028   1.169  1.00  0.00     0.294 HD
ENDBRANCH   6  21
TORSDOF 5
ENDMDL
MODEL 6
REMARK VINA RESULT:    -4.544      3.788      7.006
REMARK INTER + INTRA:          -6.412
REMARK INTER:                  -5.422
REMARK INTRA:                  -0.990
REMARK UNBOUND:                -0.806
REMARK SMILES Cc1ccc(C(=O)c2cc(O)c(O)c([N+](=O)[O-])c2)cc1
REMARK SMILES IDX 8 1 18 2 9 3 14 4 10 5 12 6 6 7 7 8 5 9 4 10 19 11 3 12
REMARK SMILES IDX 20 13 2 14 1 15 15 16 17 17 16 18 11 19 13 21
REMARK H PARENT 11 20 13 22
ROOT
ATOM      1  C   UNL     1     -10.115   5.508   1.358  1.00  0.00     0.033 A 
ATOM      2  C   UNL     1     -10.511   6.674   0.744  1.00  0.00     0.102 A 
ATOM      3  C   UNL     1     -11.006   4.572   1.827  1.00  0.00     0.063 A 
ATOM      4  C   UNL     1     -11.876   6.917   0.591  1.00  0.00     0.315 A 
ATOM      5  C   UNL     1     -12.371   4.815   1.675  1.00  0.00     0.165 A 
ATOM      6  C   UNL     1     -12.806   5.988   1.056  1.00  0.00     0.237 A 
ENDROOT
BRANCH   1   7
ATOM      7  C   UNL     1      -8.653   5.248   1.522  1.00  0.00     0.193 C 
ATOM      8  O   UNL     1      -7.986   6.105   2.122  1.00  0.00    -0.289 OA
BRANCH   7   9
ATOM      9  C   UNL     1      -8.012   4.047   1.010  1.00  0.00     0.023 A 
ATOM     10  C   UNL     1      -7.267   3.236   1.865  1.00  0.00     0.012 A 
ATOM     11  C   UNL     1      -8.143   3.707  -0.336  1.00  0.00     0.012 A 
ATOM     12  C   UNL     1      -6.653   2.084   1.374  1.00  0.00     0.004 A 
ATOM     13  C   UNL     1      -7.529   2.554  -0.828  1.00  0.00     0.004 A 
ATOM     14  C   UNL     1      -6.784   1.743   0.027  1.00  0.00    -0.051 A 
ATOM     15  C   UNL     1      -6.126   0.512  -0.498  1.00  0.00     0.044 C 
ENDBRANCH   7   9
ENDBRANCH   1   7
BRANCH   4  16
ATOM     16  N   UNL     1     -12.300   8.118  -0.041  1.00  0.00     0.066 N 
ATOM     17  O   UNL     1     -11.549   8.653  -0.892  1.00  0.00    -0.258 OA
ATOM     18  O   UNL     1     -13.412   8.606   0.269  1.00  0.00    -0.258 OA
ENDBRANCH   4  16
BRANCH   5  19
ATOM     19  O   UNL     1     -13.268   3.899   2.133  1.00  0.00    -0.504 OA
ATOM     20  H   UNL     1     -12.981   3.568   3.000  1.00  0.00     0.293 HD
ENDBRANCH   5  19
BRANCH   6  21
ATOM     21  O   UNL     1     -14.144   6.214   0.912  1.00  0.00    -0.500 OA
ATOM     22  H   UNL     1     -14.432   5.918   0.035  1.00  0.00     0.294 HD
ENDBRANCH   6  21
TORSDOF 5
ENDMDL
MODEL 7
REMARK VINA RESULT:    -4.489      3.689      6.534
REMARK INTER + INTRA:          -6.345
REMARK INTER:                  -5.341
REMARK INTRA:                  -1.004
REMARK UNBOUND:                -0.806
REMARK SMILES Cc1ccc(C(=O)c2cc(O)c(O)c([N+](=O)[O-])c2)cc1
REMARK SMILES IDX 8 1 18 2 9 3 14 4 10 5 12 6 6 7 7 8 5 9 4 10 19 11 3 12
REMARK SMILES IDX 20 13 2 14 1 15 15 16 17 17 16 18 11 19 13 21
REMARK H PARENT 11 20 13 22
ROOT
ATOM      1  C   UNL     1     -10.081   5.521   1.367  1.00  0.00     0.033 A 
ATOM      2  C   UNL     1     -10.979   4.581   1.816  1.00  0.00     0.102 A 
ATOM      3  C   UNL     1     -10.468   6.700   0.774  1.00  0.00     0.063 A 
ATOM      4  C   UNL     1     -12.342   4.835   1.664  1.00  0.00     0.315 A 
ATOM      5  C   UNL     1     -11.831   6.954   0.622  1.00  0.00     0.165 A 
ATOM      6  C   UNL     1     -12.769   6.021   1.067  1.00  0.00     0.237 A 
ENDROOT
BRANCH   1   7
ATOM      7  C   UNL     1      -8.621   5.249   1.529  1.00  0.00     0.193 C 
ATOM      8  O   UNL     1      -7.947   6.100   2.130  1.00  0.00    -0.289 OA
BRANCH   7   9
ATOM      9  C   UNL     1      -7.990   4.044   1.014  1.00  0.00     0.023 A 
ATOM     10  C   UNL     1      -7.246   3.228   1.866  1.00  0.00     0.012 A 
ATOM     11  C   UNL     1      -8.129   3.705  -0.331  1.00  0.00     0.012 A 
ATOM     12  C   UNL     1      -6.642   2.072   1.372  1.00  0.00     0.004 A 
ATOM     13  C   UNL     1      -7.525   2.549  -0.826  1.00  0.00     0.004 A 
ATOM     14  C   UNL     1      -6.781   1.732   0.026  1.00  0.00    -0.051 A 
ATOM     15  C   UNL     1      -6.133   0.497  -0.502  1.00  0.00     0.044 C 
ENDBRANCH   7   9
ENDBRANCH   1   7
BRANCH   4  16
ATOM     16  N   UNL     1     -13.283   3.873   2.124  1.00  0.00     0.066 N 
ATOM     17  O   UNL     1     -12.990   3.166   3.119  1.00  0.00    -0.258 OA
ATOM     18  O   UNL     1     -14.377   3.759   1.523  1.00  0.00    -0.258 OA
ENDBRANCH   4  16
BRANCH   5  19
ATOM     19  O   UNL     1     -12.233   8.117   0.037  1.00  0.00    -0.504 OA
ATOM     20  H   UNL     1     -11.502   8.756   0.049  1.00  0.00     0.293 HD
ENDBRANCH   5  19
BRANCH   6  21
ATOM     21  O   UNL     1     -14.100   6.281   0.913  1.00  0.00    -0.500 OA
ATOM     22  H   UNL     1     -14.609   5.767   1.558  1.00  0.00     0.294 HD
ENDBRANCH   6  21
TORSDOF 5
ENDMDL
MODEL 8
REMARK VINA RESULT:    -4.484      2.295      4.125
REMARK INTER + INTRA:          -6.338
REMARK INTER:                  -5.426
REMARK INTRA:                  -0.912
REMARK UNBOUND:                -0.806
REMARK SMILES Cc1ccc(C(=O)c2cc(O)c(O)c([N+](=O)[O-])c2)cc1
REMARK SMILES IDX 8 1 18 2 9 3 14 4 10 5 12 6 6 7 7 8 5 9 4 10 19 11 3 12
REMARK SMILES IDX 20 13 2 14 1 15 15 16 17 17 16 18 11 19 13 21
REMARK H PARENT 11 20 13 22
ROOT
ATOM      1  C   UNL     1     -10.442   4.568   0.117  1.00  0.00     0.033 A 
ATOM      2  C   UNL     1      -9.225   4.618   0.757  1.00  0.00     0.102 A 
ATOM      3  C   UNL     1     -10.649   3.851  -1.038  1.00  0.00     0.063 A 
ATOM      4  C   UNL     1      -8.155   3.908   0.212  1.00  0.00     0.315 A 
ATOM      5  C   UNL     1      -9.579   3.142  -1.584  1.00  0.00     0.165 A 
ATOM      6  C   UNL     1      -8.331   3.170  -0.958  1.00  0.00     0.237 A 
ENDROOT
BRANCH   1   7
ATOM      7  C   UNL     1     -11.588   5.328   0.701  1.00  0.00     0.193 C 
ATOM      8  O   UNL     1     -11.669   6.535   0.427  1.00  0.00    -0.289 OA
BRANCH   7   9
ATOM      9  C   UNL     1     -12.583   4.703   1.557  1.00  0.00     0.023 A 
ATOM     10  C   UNL     1     -13.941   4.909   1.315  1.00  0.00     0.012 A 
ATOM     11  C   UNL     1     -12.179   3.896   2.621  1.00  0.00     0.012 A 
ATOM     12  C   UNL     1     -14.894   4.309   2.137  1.00  0.00     0.004 A 
ATOM     13  C   UNL     1     -13.133   3.295   3.443  1.00  0.00     0.004 A 
ATOM     14  C   UNL     1     -14.491   3.501   3.201  1.00  0.00    -0.051 A 
ATOM     15  C   UNL     1     -15.511   2.861   4.080  1.00  0.00     0.044 C 
ENDBRANCH   7   9
ENDBRANCH   1   7
BRANCH   4  16
ATOM     16  N   UNL     1      -6.892   3.950   0.862  1.00  0.00     0.066 N 
ATOM     17  O   UNL     1      -6.253   2.880   1.015  1.00  0.00    -0.258 OA
ATOM     18  O   UNL     1      -6.453   5.053   1.263  1.00  0.00    -0.258 OA
ENDBRANCH   4  16
BRANCH   5  19
ATOM     19  O   UNL     1      -9.766   2.424  -2.727  1.00  0.00    -0.504 OA
ATOM     20  H   UNL     1      -8.928   2.367  -3.216  1.00  0.00     0.293 HD
ENDBRANCH   5  19
BRANCH   6  21
ATOM     21  O   UNL     1      -7.292   2.472  -1.502  1.00  0.00    -0.500 OA
ATOM     22  H   UNL     1      -7.075   2.837  -2.374  1.00  0.00     0.294 HD
ENDBRANCH   6  21
TORSDOF 5
ENDMDL
MODEL 9
REMARK VINA RESULT:    -4.443      3.673      6.712
REMARK INTER + INTRA:          -6.288
REMARK INTER:                  -5.314
REMARK INTRA:                  -0.974
REMARK UNBOUND:                -0.806
REMARK SMILES Cc1ccc(C(=O)c2cc(O)c(O)c([N+](=O)[O-])c2)cc1
REMARK SMILES IDX 8 1 18 2 9 3 14 4 10 5 12 6 6 7 7 8 5 9 4 10 19 11 3 12
REMARK SMILES IDX 20 13 2 14 1 15 15 16 17 17 16 18 11 19 13 21
REMARK H PARENT 11 20 13 22
ROOT
ATOM      1  C   UNL     1     -10.341   4.715   0.242  1.00  0.00     0.033 A 
ATOM      2  C   UNL     1     -11.291   3.982   0.915  1.00  0.00     0.102 A 
ATOM      3  C   UNL     1     -10.503   6.045  -0.064  1.00  0.00     0.063 A 
ATOM      4  C   UNL     1     -12.470   4.617   1.306  1.00  0.00     0.315 A 
ATOM      5  C   UNL     1     -11.683   6.680   0.326  1.00  0.00     0.165 A 
ATOM      6  C   UNL     1     -12.666   5.966   1.012  1.00  0.00     0.237 A 
ENDROOT
BRANCH   1   7
ATOM      7  C   UNL     1      -9.078   4.035  -0.177  1.00  0.00     0.193 C 
ATOM      8  O   UNL     1      -9.182   3.056  -0.931  1.00  0.00    -0.289 OA
BRANCH   7   9
ATOM      9  C   UNL     1      -7.768   4.483   0.267  1.00  0.00     0.023 A 
ATOM     10  C   UNL     1      -7.544   4.756   1.617  1.00  0.00     0.012 A 
ATOM     11  C   UNL     1      -6.734   4.638  -0.656  1.00  0.00     0.012 A 
ATOM     12  C   UNL     1      -6.287   5.185   2.042  1.00  0.00     0.004 A 
ATOM     13  C   UNL     1      -5.476   5.067  -0.231  1.00  0.00     0.004 A 
ATOM     14  C   UNL     1      -5.253   5.341   1.119  1.00  0.00    -0.051 A 
ATOM     15  C   UNL     1      -3.910   5.801   1.574  1.00  0.00     0.044 C 
ENDBRANCH   7   9
ENDBRANCH   1   7
BRANCH   4  16
ATOM     16  N   UNL     1     -13.461   3.872   2.003  1.00  0.00     0.066 N 
ATOM     17  O   UNL     1     -13.096   2.957   2.779  1.00  0.00    -0.258 OA
ATOM     18  O   UNL     1     -14.668   4.153   1.822  1.00  0.00    -0.258 OA
ENDBRANCH   4  16
BRANCH   5  19
ATOM     19  O   UNL     1     -11.861   7.999   0.032  1.00  0.00    -0.504 OA
ATOM     20  H   UNL     1     -12.390   8.419   0.730  1.00  0.00     0.293 HD
ENDBRANCH   5  19
BRANCH   6  21
ATOM     21  O   UNL     1     -13.816   6.598   1.388  1.00  0.00    -0.500 OA
ATOM     22  H   UNL     1     -13.718   7.555   1.262  1.00  0.00     0.294 HD
ENDBRANCH   6  21
TORSDOF 5
ENDMDL
