MODEL 1
REMARK VINA RESULT:    -4.022      0.000      0.000
REMARK INTER + INTRA:          -5.389
REMARK INTER:                  -4.963
REMARK INTRA:                  -0.426
REMARK UNBOUND:                -0.426
REMARK SMILES Cc1ccc(C(=O)c2cc(O)c(O)c([N+](=O)[O-])c2)cc1
REMARK SMILES IDX 8 1 18 2 9 3 14 4 10 5 12 6 6 7 7 8 5 9 4 10 19 11 3 12
REMARK SMILES IDX 20 13 2 14 1 15 15 16 17 17 16 18 11 19 13 21
REMARK H PARENT 11 20 13 22
ROOT
ATOM      1  C   UNL     1      -5.814  -1.334  -5.426  1.00  0.00     0.033 A 
ATOM      2  C   UNL     1      -4.876  -0.350  -5.637  1.00  0.00     0.102 A 
ATOM      3  C   UNL     1      -5.921  -2.022  -4.241  1.00  0.00     0.063 A 
ATOM      4  C   UNL     1      -3.996  -0.035  -4.602  1.00  0.00     0.315 A 
ATOM      5  C   UNL     1      -5.040  -1.708  -3.206  1.00  0.00     0.165 A 
ATOM      6  C   UNL     1      -4.077  -0.714  -3.386  1.00  0.00     0.237 A 
ENDROOT
BRANCH   1   7
ATOM      7  C   UNL     1      -6.757  -1.671  -6.535  1.00  0.00     0.193 C 
ATOM      8  O   UNL     1      -6.496  -2.671  -7.220  1.00  0.00    -0.289 OA
BRANCH   7   9
ATOM      9  C   UNL     1      -7.941  -0.876  -6.820  1.00  0.00     0.023 A 
ATOM     10  C   UNL     1      -7.981   0.471  -6.459  1.00  0.00     0.012 A 
ATOM     11  C   UNL     1      -9.037  -1.461  -7.454  1.00  0.00     0.012 A 
ATOM     12  C   UNL     1      -9.116   1.233  -6.733  1.00  0.00     0.004 A 
ATOM     13  C   UNL     1     -10.174  -0.699  -7.729  1.00  0.00     0.004 A 
ATOM     14  C   UNL     1     -10.213   0.648  -7.368  1.00  0.00    -0.051 A 
ATOM     15  C   UNL     1     -11.427   1.463  -7.659  1.00  0.00     0.044 C 
ENDBRANCH   7   9
ENDBRANCH   1   7
BRANCH   4  16
ATOM     16  N   UNL     1      -3.021   0.980  -4.805  1.00  0.00     0.066 N 
ATOM     17  O   UNL     1      -3.340   2.176  -4.598  1.00  0.00    -0.258 OA
ATOM     18  O   UNL     1      -1.873   0.651  -5.183  1.00  0.00    -0.258 OA
ENDBRANCH   4  16
BRANCH   5  19
ATOM     19  O   UNL     1      -5.131  -2.378  -2.023  1.00  0.00    -0.504 OA
ATOM     20  H   UNL     1      -5.082  -1.747  -1.286  1.00  0.00     0.293 HD
ENDBRANCH   5  19
BRANCH   6  21
ATOM     21  O   UNL     1      -3.221  -0.415  -2.366  1.00  0.00    -0.500 OA
ATOM     22  H   UNL     1      -2.346  -0.787  -2.555  1.00  0.00     0.294 HD
ENDBRANCH   6  21
TORSDOF 5
ENDMDL
MODEL 2
REMARK VINA RESULT:    -3.966      1.902      3.484
REMARK INTER + INTRA:          -5.319
REMARK INTER:                  -4.899
REMARK INTRA:                  -0.420
REMARK UNBOUND:                -0.426
REMARK SMILES Cc1ccc(C(=O)c2cc(O)c(O)c([N+](=O)[O-])c2)cc1
REMARK SMILES IDX 8 1 18 2 9 3 14 4 10 5 12 6 6 7 7 8 5 9 4 10 19 11 3 12
REMARK SMILES IDX 20 13 2 14 1 15 15 16 17 17 16 18 11 19 13 21
REMARK H PARENT 11 20 13 22
ROOT
ATOM      1  C   UNL     1      -5.686   1.001  -4.538  1.00  0.00     0.033 A 
ATOM      2  C   UNL     1      -5.951  -0.175  -3.876  1.00  0.00     0.102 A 
ATOM      3  C   UNL     1      -4.428   1.348  -4.969  1.00  0.00     0.063 A 
ATOM      4  C   UNL     1      -4.897  -1.055  -3.633  1.00  0.00     0.315 A 
ATOM      5  C   UNL     1      -3.373   0.469  -4.724  1.00  0.00     0.165 A 
ATOM      6  C   UNL     1      -3.608  -0.734  -4.057  1.00  0.00     0.237 A 
ENDROOT
BRANCH   1   7
ATOM      7  C   UNL     1      -6.816   1.944  -4.799  1.00  0.00     0.193 C 
ATOM      8  O   UNL     1      -6.935   2.914  -4.035  1.00  0.00    -0.289 OA
BRANCH   7   9
ATOM      9  C   UNL     1      -7.751   1.756  -5.896  1.00  0.00     0.023 A 
ATOM     10  C   UNL     1      -8.442   2.850  -6.419  1.00  0.00     0.012 A 
ATOM     11  C   UNL     1      -7.957   0.483  -6.427  1.00  0.00     0.012 A 
ATOM     12  C   UNL     1      -9.338   2.669  -7.472  1.00  0.00     0.004 A 
ATOM     13  C   UNL     1      -8.854   0.302  -7.480  1.00  0.00     0.004 A 
ATOM     14  C   UNL     1      -9.545   1.395  -8.003  1.00  0.00    -0.051 A 
ATOM     15  C   UNL     1     -10.504   1.202  -9.127  1.00  0.00     0.044 C 
ENDBRANCH   7   9
ENDBRANCH   1   7
BRANCH   4  16
ATOM     16  N   UNL     1      -5.155  -2.276  -2.950  1.00  0.00     0.066 N 
ATOM     17  O   UNL     1      -5.521  -3.276  -3.614  1.00  0.00    -0.258 OA
ATOM     18  O   UNL     1      -5.009  -2.317  -1.706  1.00  0.00    -0.258 OA
ENDBRANCH   4  16
BRANCH   5  19
ATOM     19  O   UNL     1      -2.119   0.796  -5.145  1.00  0.00    -0.504 OA
ATOM     20  H   UNL     1      -1.594   1.108  -4.390  1.00  0.00     0.293 HD
ENDBRANCH   5  19
BRANCH   6  21
ATOM     21  O   UNL     1      -2.568  -1.587  -3.824  1.00  0.00    -0.500 OA
ATOM     22  H   UNL     1      -2.911  -2.461  -3.581  1.00  0.00     0.294 HD
ENDBRANCH   6  21
TORSDOF 5
ENDMDL
MODEL 3
REMARK VINA RESULT:    -3.942      3.028      4.520
REMARK INTER + INTRA:          -5.290
REMARK INTER:                  -4.495
REMARK INTRA:                  -0.795
REMARK UNBOUND:                -0.426
REMARK SMILES Cc1ccc(C(=O)c2cc(O)c(O)c([N+](=O)[O-])c2)cc1
REMARK SMILES IDX 8 1 18 2 9 3 14 4 10 5 12 6 6 7 7 8 5 9 4 10 19 11 3 12
REMARK SMILES IDX 20 13 2 14 1 15 15 16 17 17 16 18 11 19 13 21
REMARK H PARENT 11 20 13 22
ROOT
ATOM      1  C   UNL     1      -8.538   0.234  -7.309  1.00  0.00     0.033 A 
ATOM      2  C   UNL     1      -7.453   0.513  -6.510  1.00  0.00     0.102 A 
ATOM      3  C   UNL     1      -8.905  -1.047  -7.647  1.00  0.00     0.063 A 
ATOM      4  C   UNL     1      -6.695  -0.550  -6.020  1.00  0.00     0.315 A 
ATOM      5  C   UNL     1      -8.146  -2.110  -7.158  1.00  0.00     0.165 A 
ATOM      6  C   UNL     1      -7.041  -1.861  -6.344  1.00  0.00     0.237 A 
ENDROOT
BRANCH   1   7
ATOM      7  C   UNL     1      -9.350   1.373  -7.834  1.00  0.00     0.193 C 
ATOM      8  O   UNL     1      -9.950   2.074  -7.004  1.00  0.00    -0.289 OA
BRANCH   7   9
ATOM      9  C   UNL     1      -9.451   1.669  -9.254  1.00  0.00     0.023 A 
ATOM     10  C   UNL     1     -10.557   2.363  -9.744  1.00  0.00     0.012 A 
ATOM     11  C   UNL     1      -8.442   1.260 -10.125  1.00  0.00     0.012 A 
ATOM     12  C   UNL     1     -10.654   2.648 -11.106  1.00  0.00     0.004 A 
ATOM     13  C   UNL     1      -8.538   1.544 -11.488  1.00  0.00     0.004 A 
ATOM     14  C   UNL     1      -9.645   2.239 -11.979  1.00  0.00    -0.051 A 
ATOM     15  C   UNL     1      -9.749   2.542 -13.434  1.00  0.00     0.044 C 
ENDBRANCH   7   9
ENDBRANCH   1   7
BRANCH   4  16
ATOM     16  N   UNL     1      -5.571  -0.277  -5.192  1.00  0.00     0.066 N 
ATOM     17  O   UNL     1      -5.278  -1.089  -4.281  1.00  0.00    -0.258 OA
ATOM     18  O   UNL     1      -4.907   0.765  -5.397  1.00  0.00    -0.258 OA
ENDBRANCH   4  16
BRANCH   5  19
ATOM     19  O   UNL     1      -8.496  -3.386  -7.482  1.00  0.00    -0.504 OA
ATOM     20  H   UNL     1      -8.185  -3.994  -6.791  1.00  0.00     0.293 HD
ENDBRANCH   5  19
BRANCH   6  21
ATOM     21  O   UNL     1      -6.306  -2.910  -5.871  1.00  0.00    -0.500 OA
ATOM     22  H   UNL     1      -6.899  -3.628  -5.602  1.00  0.00     0.294 HD
ENDBRANCH   6  21
TORSDOF 5
ENDMDL
MODEL 4
REMARK VINA RESULT:    -3.864      3.432      5.047
REMARK INTER + INTRA:          -5.194
REMARK INTER:                  -4.204
REMARK INTRA:                  -0.990
REMARK UNBOUND:                -0.426
REMARK SMILES Cc1ccc(C(=O)c2cc(O)c(O)c([N+](=O)[O-])c2)cc1
REMARK SMILES IDX 8 1 18 2 9 3 14 4 10 5 12 6 6 7 7 8 5 9 4 10 19 11 3 12
REMARK SMILES IDX 20 13 2 14 1 15 15 16 17 17 16 18 11 19 13 21
REMARK H PARENT 11 20 13 22
ROOT
ATOM      1  C   UNL     1      -8.972   1.600  -7.062  1.00  0.00     0.033 A 
ATOM      2  C   UNL     1      -8.292   0.506  -6.578  1.00  0.00     0.102 A 
ATOM      3  C   UNL     1      -8.705   2.885  -6.653  1.00  0.00     0.063 A 
ATOM      4  C   UNL     1      -7.287   0.710  -5.632  1.00  0.00     0.315 A 
ATOM      5  C   UNL     1      -7.701   3.089  -5.706  1.00  0.00     0.165 A 
ATOM      6  C   UNL     1      -6.991   2.001  -5.196  1.00  0.00     0.237 A 
ENDROOT
BRANCH   1   7
ATOM      7  C   UNL     1     -10.048   1.382  -8.075  1.00  0.00     0.193 C 
ATOM      8  O   UNL     1     -11.135   0.948  -7.665  1.00  0.00    -0.289 OA
BRANCH   7   9
ATOM      9  C   UNL     1      -9.855   1.660  -9.489  1.00  0.00     0.023 A 
ATOM     10  C   UNL     1     -10.745   2.496 -10.163  1.00  0.00     0.012 A 
ATOM     11  C   UNL     1      -8.780   1.091 -10.171  1.00  0.00     0.012 A 
ATOM     12  C   UNL     1     -10.560   2.762 -11.520  1.00  0.00     0.004 A 
ATOM     13  C   UNL     1      -8.594   1.357 -11.529  1.00  0.00     0.004 A 
ATOM     14  C   UNL     1      -9.484   2.193 -12.203  1.00  0.00    -0.051 A 
ATOM     15  C   UNL     1      -9.288   2.477 -13.653  1.00  0.00     0.044 C 
ENDBRANCH   7   9
ENDBRANCH   1   7
BRANCH   4  16
ATOM     16  N   UNL     1      -6.576  -0.411  -5.123  1.00  0.00     0.066 N 
ATOM     17  O   UNL     1      -6.365  -1.389  -5.880  1.00  0.00    -0.258 OA
ATOM     18  O   UNL     1      -6.179  -0.389  -3.935  1.00  0.00    -0.258 OA
ENDBRANCH   4  16
BRANCH   5  19
ATOM     19  O   UNL     1      -7.422   4.356  -5.289  1.00  0.00    -0.504 OA
ATOM     20  H   UNL     1      -8.000   4.985  -5.751  1.00  0.00     0.293 HD
ENDBRANCH   5  19
BRANCH   6  21
ATOM     21  O   UNL     1      -6.011   2.213  -4.271  1.00  0.00    -0.500 OA
ATOM     22  H   UNL     1      -6.236   2.984  -3.727  1.00  0.00     0.294 HD
ENDBRANCH   6  21
TORSDOF 5
ENDMDL
MODEL 5
REMARK VINA RESULT:    -3.470      5.002      7.901
REMARK INTER + INTRA:          -4.707
REMARK INTER:                  -3.859
REMARK INTRA:                  -0.848
REMARK UNBOUND:                -0.426
REMARK SMILES Cc1ccc(C(=O)c2cc(O)c(O)c([N+](=O)[O-])c2)cc1
REMARK SMILES IDX 8 1 18 2 9 3 14 4 10 5 12 6 6 7 7 8 5 9 4 10 19 11 3 12
REMARK SMILES IDX 20 13 2 14 1 15 15 16 17 17 16 18 11 19 13 21
REMARK H PARENT 11 20 13 22
ROOT
ATOM      1  C   UNL     1      -9.677   1.324  -8.628  1.00  0.00     0.033 A 
ATOM      2  C   UNL     1     -10.910   1.802  -9.005  1.00  0.00     0.102 A 
ATOM      3  C   UNL     1      -8.559   1.437  -9.420  1.00  0.00     0.063 A 
ATOM      4  C   UNL     1     -11.032   2.430 -10.244  1.00  0.00     0.315 A 
ATOM      5  C   UNL     1      -8.680   2.065 -10.660  1.00  0.00     0.165 A 
ATOM      6  C   UNL     1      -9.917   2.562 -11.072  1.00  0.00     0.237 A 
ENDROOT
BRANCH   1   7
ATOM      7  C   UNL     1      -9.546   0.651  -7.300  1.00  0.00     0.193 C 
ATOM      8  O   UNL     1     -10.579   0.191  -6.792  1.00  0.00    -0.289 OA
BRANCH   7   9
ATOM      9  C   UNL     1      -8.272   0.526  -6.611  1.00  0.00     0.023 A 
ATOM     10  C   UNL     1      -7.774   1.596  -5.866  1.00  0.00     0.012 A 
ATOM     11  C   UNL     1      -7.547  -0.662  -6.695  1.00  0.00     0.012 A 
ATOM     12  C   UNL     1      -6.552   1.476  -5.205  1.00  0.00     0.004 A 
ATOM     13  C   UNL     1      -6.324  -0.783  -6.033  1.00  0.00     0.004 A 
ATOM     14  C   UNL     1      -5.826   0.287  -5.288  1.00  0.00    -0.051 A 
ATOM     15  C   UNL     1      -4.519   0.160  -4.583  1.00  0.00     0.044 C 
ENDBRANCH   7   9
ENDBRANCH   1   7
BRANCH   4  16
ATOM     16  N   UNL     1     -12.301   2.929 -10.647  1.00  0.00     0.066 N 
ATOM     17  O   UNL     1     -13.334   2.307 -10.304  1.00  0.00    -0.258 OA
ATOM     18  O   UNL     1     -12.349   3.977 -11.333  1.00  0.00    -0.258 OA
ENDBRANCH   4  16
BRANCH   5  19
ATOM     19  O   UNL     1      -7.582   2.187 -11.458  1.00  0.00    -0.504 OA
ATOM     20  H   UNL     1      -7.409   1.341 -11.904  1.00  0.00     0.293 HD
ENDBRANCH   5  19
BRANCH   6  21
ATOM     21  O   UNL     1     -10.023   3.174 -12.287  1.00  0.00    -0.500 OA
ATOM     22  H   UNL     1      -9.173   3.129 -12.750  1.00  0.00     0.294 HD
ENDBRANCH   6  21
TORSDOF 5
ENDMDL
MODEL 6
REMARK VINA RESULT:    -3.446      4.890      7.794
REMARK INTER + INTRA:          -4.678
REMARK INTER:                  -3.855
REMARK INTRA:                  -0.823
REMARK UNBOUND:                -0.426
REMARK SMILES Cc1ccc(C(=O)c2cc(O)c(O)c([N+](=O)[O-])c2)cc1
REMARK SMILES IDX 8 1 18 2 9 3 14 4 10 5 12 6 6 7 7 8 5 9 4 10 19 11 3 12
REMARK SMILES IDX 20 13 2 14 1 15 15 16 17 17 16 18 11 19 13 21
REMARK H PARENT 11 20 13 22
ROOT
ATOM      1  C   UNL     1     -10.596   0.904  -7.201  1.00  0.00     0.033 A 
ATOM      2  C   UNL     1     -11.484   1.057  -8.240  1.00  0.00     0.102 A 
ATOM      3  C   UNL     1     -10.993   0.629  -5.914  1.00  0.00     0.063 A 
ATOM      4  C   UNL     1     -12.848   0.927  -7.976  1.00  0.00     0.315 A 
ATOM      5  C   UNL     1     -12.357   0.500  -5.650  1.00  0.00     0.165 A 
ATOM      6  C   UNL     1     -13.284   0.648  -6.682  1.00  0.00     0.237 A 
ENDROOT
BRANCH   1   7
ATOM      7  C   UNL     1      -9.135   1.043  -7.483  1.00  0.00     0.193 C 
ATOM      8  O   UNL     1      -8.810   1.650  -8.515  1.00  0.00    -0.289 OA
BRANCH   7   9
ATOM      9  C   UNL     1      -8.115   0.499  -6.601  1.00  0.00     0.023 A 
ATOM     10  C   UNL     1      -7.701  -0.825  -6.747  1.00  0.00     0.012 A 
ATOM     11  C   UNL     1      -7.551   1.300  -5.609  1.00  0.00     0.012 A 
ATOM     12  C   UNL     1      -6.722  -1.347  -5.902  1.00  0.00     0.004 A 
ATOM     13  C   UNL     1      -6.572   0.779  -4.763  1.00  0.00     0.004 A 
ATOM     14  C   UNL     1      -6.157  -0.545  -4.909  1.00  0.00    -0.051 A 
ATOM     15  C   UNL     1      -5.113  -1.104  -4.004  1.00  0.00     0.044 C 
ENDBRANCH   7   9
ENDBRANCH   1   7
BRANCH   4  16
ATOM     16  N   UNL     1     -13.778   1.082  -9.040  1.00  0.00     0.066 N 
ATOM     17  O   UNL     1     -13.578   1.980  -9.894  1.00  0.00    -0.258 OA
ATOM     18  O   UNL     1     -14.769   0.317  -9.095  1.00  0.00    -0.258 OA
ENDBRANCH   4  16
BRANCH   5  19
ATOM     19  O   UNL     1     -12.769   0.227  -4.380  1.00  0.00    -0.504 OA
ATOM     20  H   UNL     1     -12.307  -0.561  -4.050  1.00  0.00     0.293 HD
ENDBRANCH   5  19
BRANCH   6  21
ATOM     21  O   UNL     1     -14.616   0.519  -6.411  1.00  0.00    -0.500 OA
ATOM     22  H   UNL     1     -15.132   0.740  -7.202  1.00  0.00     0.294 HD
ENDBRANCH   6  21
TORSDOF 5
ENDMDL
MODEL 7
REMARK VINA RESULT:    -3.431      1.604      2.926
REMARK INTER + INTRA:          -4.660
REMARK INTER:                  -3.707
REMARK INTRA:                  -0.953
REMARK UNBOUND:                -0.426
REMARK SMILES Cc1ccc(C(=O)c2cc(O)c(O)c([N+](=O)[O-])c2)cc1
REMARK SMILES IDX 8 1 18 2 9 3 14 4 10 5 12 6 6 7 7 8 5 9 4 10 19 11 3 12
REMARK SMILES IDX 20 13 2 14 1 15 15 16 17 17 16 18 11 19 13 21
REMARK H PARENT 11 20 13 22
ROOT
ATOM      1  C   UNL     1      -5.853  -0.009  -6.079  1.00  0.00     0.033 A 
ATOM      2  C   UNL     1      -6.093  -1.082  -5.253  1.00  0.00     0.102 A 
ATOM      3  C   UNL     1      -4.775   0.829  -5.922  1.00  0.00     0.063 A 
ATOM      4  C   UNL     1      -5.201  -1.332  -4.210  1.00  0.00     0.315 A 
ATOM      5  C   UNL     1      -3.883   0.580  -4.878  1.00  0.00     0.165 A 
ATOM      6  C   UNL     1      -4.096  -0.502  -4.022  1.00  0.00     0.237 A 
ENDROOT
BRANCH   1   7
ATOM      7  C   UNL     1      -6.809   0.260  -7.197  1.00  0.00     0.193 C 
ATOM      8  O   UNL     1      -6.331   0.401  -8.332  1.00  0.00    -0.289 OA
BRANCH   7   9
ATOM      9  C   UNL     1      -8.245   0.356  -6.989  1.00  0.00     0.023 A 
ATOM     10  C   UNL     1      -8.797   1.524  -6.463  1.00  0.00     0.012 A 
ATOM     11  C   UNL     1      -9.070  -0.720  -7.315  1.00  0.00     0.012 A 
ATOM     12  C   UNL     1     -10.174   1.616  -6.264  1.00  0.00     0.004 A 
ATOM     13  C   UNL     1     -10.448  -0.628  -7.116  1.00  0.00     0.004 A 
ATOM     14  C   UNL     1     -11.000   0.540  -6.590  1.00  0.00    -0.051 A 
ATOM     15  C   UNL     1     -12.472   0.639  -6.376  1.00  0.00     0.044 C 
ENDBRANCH   7   9
ENDBRANCH   1   7
BRANCH   4  16
ATOM     16  N   UNL     1      -5.434  -2.438  -3.348  1.00  0.00     0.066 N 
ATOM     17  O   UNL     1      -5.723  -3.550  -3.853  1.00  0.00    -0.258 OA
ATOM     18  O   UNL     1      -5.344  -2.271  -2.109  1.00  0.00    -0.258 OA
ENDBRANCH   4  16
BRANCH   5  19
ATOM     19  O   UNL     1      -2.808   1.399  -4.708  1.00  0.00    -0.504 OA
ATOM     20  H   UNL     1      -2.137   1.200  -5.381  1.00  0.00     0.293 HD
ENDBRANCH   5  19
BRANCH   6  21
ATOM     21  O   UNL     1      -3.216  -0.736  -3.006  1.00  0.00    -0.500 OA
ATOM     22  H   UNL     1      -3.662  -1.223  -2.295  1.00  0.00     0.294 HD
ENDBRANCH   6  21
TORSDOF 5
ENDMDL
MODEL 8
REMARK VINA RESULT:    -3.414      4.195      7.322
REMARK INTER + INTRA:          -4.638
REMARK INTER:                  -3.637
REMARK INTRA:                  -1.001
REMARK UNBOUND:                -0.426
REMARK SMILES Cc1ccc(C(=O)c2cc(O)c(O)c([N+](=O)[O-])c2)cc1
REMARK SMILES IDX 8 1 18 2 9 3 14 4 10 5 12 6 6 7 7 8 5 9 4 10 19 11 3 12
REMARK SMILES IDX 20 13 2 14 1 15 15 16 17 17 16 18 11 19 13 21
REMARK H PARENT 11 20 13 22
ROOT
ATOM      1  C   UNL     1      -9.094   0.065  -7.540  1.00  0.00     0.033 A 
ATOM      2  C   UNL     1     -10.362   0.074  -7.006  1.00  0.00     0.102 A 
ATOM      3  C   UNL     1      -8.765   0.739  -8.693  1.00  0.00     0.063 A 
ATOM      4  C   UNL     1     -11.357   0.799  -7.662  1.00  0.00     0.315 A 
ATOM      5  C   UNL     1      -9.761   1.463  -9.349  1.00  0.00     0.165 A 
ATOM      6  C   UNL     1     -11.057   1.493  -8.833  1.00  0.00     0.237 A 
ENDROOT
BRANCH   1   7
ATOM      7  C   UNL     1      -8.028  -0.711  -6.838  1.00  0.00     0.193 C 
ATOM      8  O   UNL     1      -8.199  -1.934  -6.721  1.00  0.00    -0.289 OA
BRANCH   7   9
ATOM      9  C   UNL     1      -6.830  -0.083  -6.304  1.00  0.00     0.023 A 
ATOM     10  C   UNL     1      -6.938   1.021  -5.460  1.00  0.00     0.012 A 
ATOM     11  C   UNL     1      -5.572  -0.586  -6.637  1.00  0.00     0.012 A 
ATOM     12  C   UNL     1      -5.789   1.623  -4.948  1.00  0.00     0.004 A 
ATOM     13  C   UNL     1      -4.422   0.015  -6.125  1.00  0.00     0.004 A 
ATOM     14  C   UNL     1      -4.530   1.120  -5.280  1.00  0.00    -0.051 A 
ATOM     15  C   UNL     1      -3.302   1.764  -4.734  1.00  0.00     0.044 C 
ENDBRANCH   7   9
ENDBRANCH   1   7
BRANCH   4  16
ATOM     16  N   UNL     1     -12.672   0.817  -7.121  1.00  0.00     0.066 N 
ATOM     17  O   UNL     1     -13.646   0.951  -7.901  1.00  0.00    -0.258 OA
ATOM     18  O   UNL     1     -12.820   0.699  -5.883  1.00  0.00    -0.258 OA
ENDBRANCH   4  16
BRANCH   5  19
ATOM     19  O   UNL     1      -9.453   2.137 -10.493  1.00  0.00    -0.504 OA
ATOM     20  H   UNL     1      -8.932   2.927 -10.274  1.00  0.00     0.293 HD
ENDBRANCH   5  19
BRANCH   6  21
ATOM     21  O   UNL     1     -12.022   2.206  -9.484  1.00  0.00    -0.500 OA
ATOM     22  H   UNL     1     -11.865   2.170 -10.440  1.00  0.00     0.294 HD
ENDBRANCH   6  21
TORSDOF 5
ENDMDL
MODEL 9
REMARK VINA RESULT:    -3.258      1.434      1.707
REMARK INTER + INTRA:          -4.446
REMARK INTER:                  -3.668
REMARK INTRA:                  -0.778
REMARK UNBOUND:                -0.426
REMARK SMILES Cc1ccc(C(=O)c2cc(O)c(O)c([N+](=O)[O-])c2)cc1
REMARK SMILES IDX 8 1 18 2 9 3 14 4 10 5 12 6 6 7 7 8 5 9 4 10 19 11 3 12
REMARK SMILES IDX 20 13 2 14 1 15 15 16 17 17 16 18 11 19 13 21
REMARK H PARENT 11 20 13 22
ROOT
ATOM      1  C   UNL     1      -6.574  -0.045  -6.165  1.00  0.00     0.033 A 
ATOM      2  C   UNL     1      -5.436   0.713  -6.017  1.00  0.00     0.102 A 
ATOM      3  C   UNL     1      -6.831  -1.162  -5.407  1.00  0.00     0.063 A 
ATOM      4  C   UNL     1      -4.502   0.332  -5.054  1.00  0.00     0.315 A 
ATOM      5  C   UNL     1      -5.897  -1.544  -4.444  1.00  0.00     0.165 A 
ATOM      6  C   UNL     1      -4.732  -0.797  -4.267  1.00  0.00     0.237 A 
ENDROOT
BRANCH   1   7
ATOM      7  C   UNL     1      -7.575   0.363  -7.197  1.00  0.00     0.193 C 
ATOM      8  O   UNL     1      -7.146   0.645  -8.326  1.00  0.00    -0.289 OA
BRANCH   7   9
ATOM      9  C   UNL     1      -9.000   0.435  -6.916  1.00  0.00     0.023 A 
ATOM     10  C   UNL     1      -9.549   1.604  -6.388  1.00  0.00     0.012 A 
ATOM     11  C   UNL     1      -9.818  -0.665  -7.174  1.00  0.00     0.012 A 
ATOM     12  C   UNL     1     -10.916   1.672  -6.119  1.00  0.00     0.004 A 
ATOM     13  C   UNL     1     -11.186  -0.597  -6.905  1.00  0.00     0.004 A 
ATOM     14  C   UNL     1     -11.735   0.572  -6.377  1.00  0.00    -0.051 A 
ATOM     15  C   UNL     1     -13.195   0.646  -6.088  1.00  0.00     0.044 C 
ENDBRANCH   7   9
ENDBRANCH   1   7
BRANCH   4  16
ATOM     16  N   UNL     1      -3.321   1.105  -4.888  1.00  0.00     0.066 N 
ATOM     17  O   UNL     1      -3.426   2.303  -4.531  1.00  0.00    -0.258 OA
ATOM     18  O   UNL     1      -2.209   0.568  -5.104  1.00  0.00    -0.258 OA
ENDBRANCH   4  16
BRANCH   5  19
ATOM     19  O   UNL     1      -6.135  -2.649  -3.682  1.00  0.00    -0.504 OA
ATOM     20  H   UNL     1      -5.756  -2.521  -2.797  1.00  0.00     0.293 HD
ENDBRANCH   5  19
BRANCH   6  21
ATOM     21  O   UNL     1      -3.826  -1.180  -3.321  1.00  0.00    -0.500 OA
ATOM     22  H   UNL     1      -3.346  -0.402  -2.995  1.00  0.00     0.294 HD
ENDBRANCH   6  21
TORSDOF 5
ENDMDL
