MODEL 1
REMARK VINA RESULT:    -6.885      0.000      0.000
REMARK INTER + INTRA:          -8.651
REMARK INTER:                  -8.093
REMARK INTRA:                  -0.558
REMARK UNBOUND:                -0.558
REMARK SMILES O=C(O)c1cc(-c2ccc(F)cc2F)ccc1O
REMARK SMILES IDX 6 1 5 2 15 3 4 4 17 5 16 6 7 7 13 8 12 9 8 10 10 11 9 12
REMARK SMILES IDX 14 13 11 14 2 15 1 16 3 17 18 19
REMARK H PARENT 3 18 18 20
ROOT
ATOM      1  C   UNL     1      -8.910   0.162  -1.238  1.00  0.00    -0.014 A 
ATOM      2  C   UNL     1      -8.037  -0.195  -2.264  1.00  0.00     0.028 A 
ATOM      3  C   UNL     1      -8.409   0.479   0.025  1.00  0.00     0.013 A 
ATOM      4  C   UNL     1      -6.663  -0.236  -2.030  1.00  0.00     0.102 A 
ATOM      5  C   UNL     1      -6.162   0.081  -0.767  1.00  0.00     0.130 A 
ATOM      6  C   UNL     1      -7.035   0.439   0.261  1.00  0.00     0.048 A 
ENDROOT
BRANCH   1   7
ATOM      7  C   UNL     1     -10.336   0.203  -1.480  1.00  0.00     0.018 A 
ATOM      8  C   UNL     1     -10.831   0.774  -2.653  1.00  0.00     0.133 A 
ATOM      9  C   UNL     1     -12.207   0.812  -2.883  1.00  0.00     0.079 A 
ATOM     10  C   UNL     1     -11.216  -0.331  -0.539  1.00  0.00     0.015 A 
ATOM     11  C   UNL     1     -13.086   0.279  -1.941  1.00  0.00     0.126 A 
ATOM     12  C   UNL     1     -12.590  -0.293  -0.769  1.00  0.00     0.040 A 
ATOM     13  F   UNL     1      -9.999   1.294  -3.567  1.00  0.00    -0.206 F 
ATOM     14  F   UNL     1     -14.407   0.314  -2.161  1.00  0.00    -0.207 F 
ENDBRANCH   1   7
BRANCH   4  15
ATOM     15  C   UNL     1      -5.768  -0.611  -3.115  1.00  0.00     0.339 C 
ATOM     16  O   UNL     1      -4.912  -1.498  -3.061  1.00  0.00    -0.246 OA
BRANCH  15  17
ATOM     17  O   UNL     1      -5.972   0.133  -4.236  1.00  0.00    -0.478 OA
ATOM     18  H   UNL     1      -6.067  -0.428  -5.034  1.00  0.00     0.297 HD
ENDBRANCH  15  17
ENDBRANCH   4  15
BRANCH   5  19
ATOM     19  O   UNL     1      -4.822   0.049  -0.517  1.00  0.00    -0.507 OA
ATOM     20  H   UNL     1      -4.362  -0.310  -1.296  1.00  0.00     0.293 HD
ENDBRANCH   5  19
TORSDOF 4
ENDMDL
MODEL 2
REMARK VINA RESULT:    -6.871      1.628      3.122
REMARK INTER + INTRA:          -8.634
REMARK INTER:                  -8.073
REMARK INTRA:                  -0.561
REMARK UNBOUND:                -0.558
REMARK SMILES O=C(O)c1cc(-c2ccc(F)cc2F)ccc1O
REMARK SMILES IDX 6 1 5 2 15 3 4 4 17 5 16 6 7 7 13 8 12 9 8 10 10 11 9 12
REMARK SMILES IDX 14 13 11 14 2 15 1 16 3 17 18 19
REMARK H PARENT 3 18 18 20
ROOT
ATOM      1  C   UNL     1      -8.914   0.075  -1.281  1.00  0.00    -0.014 A 
ATOM      2  C   UNL     1      -8.441   0.386  -0.007  1.00  0.00     0.028 A 
ATOM      3  C   UNL     1      -8.020  -0.288  -2.288  1.00  0.00     0.013 A 
ATOM      4  C   UNL     1      -7.072   0.335   0.261  1.00  0.00     0.102 A 
ATOM      5  C   UNL     1      -6.178  -0.028  -0.746  1.00  0.00     0.130 A 
ATOM      6  C   UNL     1      -6.652  -0.340  -2.021  1.00  0.00     0.048 A 
ENDROOT
BRANCH   1   7
ATOM      7  C   UNL     1     -10.333   0.129  -1.560  1.00  0.00     0.018 A 
ATOM      8  C   UNL     1     -11.247  -0.394  -0.644  1.00  0.00     0.133 A 
ATOM      9  C   UNL     1     -12.614  -0.340  -0.917  1.00  0.00     0.079 A 
ATOM     10  C   UNL     1     -10.786   0.706  -2.746  1.00  0.00     0.015 A 
ATOM     11  C   UNL     1     -13.067   0.237  -2.104  1.00  0.00     0.126 A 
ATOM     12  C   UNL     1     -12.152   0.760  -3.018  1.00  0.00     0.040 A 
ATOM     13  F   UNL     1     -10.829  -0.954   0.499  1.00  0.00    -0.206 F 
ATOM     14  F   UNL     1     -14.379   0.289  -2.367  1.00  0.00    -0.207 F 
ENDBRANCH   1   7
BRANCH   4  15
ATOM     15  C   UNL     1      -6.598   0.664   1.598  1.00  0.00     0.339 C 
ATOM     16  O   UNL     1      -5.715   1.483   1.861  1.00  0.00    -0.246 OA
BRANCH  15  17
ATOM     17  O   UNL     1      -7.244  -0.042   2.565  1.00  0.00    -0.478 OA
ATOM     18  H   UNL     1      -7.848  -0.715   2.185  1.00  0.00     0.297 HD
ENDBRANCH  15  17
ENDBRANCH   4  15
BRANCH   5  19
ATOM     19  O   UNL     1      -4.838  -0.085  -0.505  1.00  0.00    -0.507 OA
ATOM     20  H   UNL     1      -4.693  -0.338   0.423  1.00  0.00     0.293 HD
ENDBRANCH   5  19
TORSDOF 4
ENDMDL
MODEL 3
REMARK VINA RESULT:    -6.858      1.207      2.685
REMARK INTER + INTRA:          -8.619
REMARK INTER:                  -8.058
REMARK INTRA:                  -0.560
REMARK UNBOUND:                -0.558
REMARK SMILES O=C(O)c1cc(-c2ccc(F)cc2F)ccc1O
REMARK SMILES IDX 6 1 5 2 15 3 4 4 17 5 16 6 7 7 13 8 12 9 8 10 10 11 9 12
REMARK SMILES IDX 14 13 11 14 2 15 1 16 3 17 18 19
REMARK H PARENT 3 18 18 20
ROOT
ATOM      1  C   UNL     1      -8.896   0.115  -1.305  1.00  0.00    -0.014 A 
ATOM      2  C   UNL     1      -8.431   0.414  -0.026  1.00  0.00     0.028 A 
ATOM      3  C   UNL     1      -7.996  -0.242  -2.309  1.00  0.00     0.013 A 
ATOM      4  C   UNL     1      -7.064   0.356   0.252  1.00  0.00     0.102 A 
ATOM      5  C   UNL     1      -6.164  -0.001  -0.752  1.00  0.00     0.130 A 
ATOM      6  C   UNL     1      -6.630  -0.300  -2.033  1.00  0.00     0.048 A 
ENDROOT
BRANCH   1   7
ATOM      7  C   UNL     1     -10.313   0.176  -1.594  1.00  0.00     0.018 A 
ATOM      8  C   UNL     1     -10.763   0.785  -2.766  1.00  0.00     0.133 A 
ATOM      9  C   UNL     1     -12.130   0.842  -3.040  1.00  0.00     0.079 A 
ATOM     10  C   UNL     1     -11.228  -0.376  -0.698  1.00  0.00     0.015 A 
ATOM     11  C   UNL     1     -13.045   0.291  -2.143  1.00  0.00     0.126 A 
ATOM     12  C   UNL     1     -12.594  -0.318  -0.973  1.00  0.00     0.040 A 
ATOM     13  F   UNL     1      -9.897   1.323  -3.636  1.00  0.00    -0.206 F 
ATOM     14  F   UNL     1     -14.357   0.345  -2.406  1.00  0.00    -0.207 F 
ENDBRANCH   1   7
BRANCH   4  15
ATOM     15  C   UNL     1      -6.599   0.671   1.595  1.00  0.00     0.339 C 
ATOM     16  O   UNL     1      -5.720   1.491   1.872  1.00  0.00    -0.246 OA
BRANCH  15  17
ATOM     17  O   UNL     1      -7.247  -0.049   2.551  1.00  0.00    -0.478 OA
ATOM     18  H   UNL     1      -7.626   0.527   3.247  1.00  0.00     0.297 HD
ENDBRANCH  15  17
ENDBRANCH   4  15
BRANCH   5  19
ATOM     19  O   UNL     1      -4.826  -0.064  -0.502  1.00  0.00    -0.507 OA
ATOM     20  H   UNL     1      -4.447   0.829  -0.574  1.00  0.00     0.293 HD
ENDBRANCH   5  19
TORSDOF 4
ENDMDL
MODEL 4
REMARK VINA RESULT:    -6.841      1.121      1.598
REMARK INTER + INTRA:          -8.599
REMARK INTER:                  -7.971
REMARK INTRA:                  -0.628
REMARK UNBOUND:                -0.558
REMARK SMILES O=C(O)c1cc(-c2ccc(F)cc2F)ccc1O
REMARK SMILES IDX 6 1 5 2 15 3 4 4 17 5 16 6 7 7 13 8 12 9 8 10 10 11 9 12
REMARK SMILES IDX 14 13 11 14 2 15 1 16 3 17 18 19
REMARK H PARENT 3 18 18 20
ROOT
ATOM      1  C   UNL     1      -8.949   0.152  -1.333  1.00  0.00    -0.014 A 
ATOM      2  C   UNL     1      -8.104  -0.235  -2.372  1.00  0.00     0.028 A 
ATOM      3  C   UNL     1      -8.414   0.496  -0.091  1.00  0.00     0.013 A 
ATOM      4  C   UNL     1      -6.724  -0.277  -2.171  1.00  0.00     0.102 A 
ATOM      5  C   UNL     1      -6.189   0.067  -0.930  1.00  0.00     0.130 A 
ATOM      6  C   UNL     1      -7.035   0.454   0.111  1.00  0.00     0.048 A 
ENDROOT
BRANCH   1   7
ATOM      7  C   UNL     1     -10.380   0.194  -1.540  1.00  0.00     0.018 A 
ATOM      8  C   UNL     1     -11.242  -0.355  -0.591  1.00  0.00     0.133 A 
ATOM      9  C   UNL     1     -12.622  -0.312  -0.795  1.00  0.00     0.079 A 
ATOM     10  C   UNL     1     -10.897   0.787  -2.692  1.00  0.00     0.015 A 
ATOM     11  C   UNL     1     -13.138   0.280  -1.947  1.00  0.00     0.126 A 
ATOM     12  C   UNL     1     -12.276   0.830  -2.895  1.00  0.00     0.040 A 
ATOM     13  F   UNL     1     -10.762  -0.931   0.520  1.00  0.00    -0.206 F 
ATOM     14  F   UNL     1     -14.462   0.322  -2.143  1.00  0.00    -0.207 F 
ENDBRANCH   1   7
BRANCH   4  15
ATOM     15  C   UNL     1      -5.858  -0.683  -3.270  1.00  0.00     0.339 C 
ATOM     16  O   UNL     1      -4.902  -1.456  -3.177  1.00  0.00    -0.246 OA
BRANCH  15  17
ATOM     17  O   UNL     1      -6.218  -0.111  -4.451  1.00  0.00    -0.478 OA
ATOM     18  H   UNL     1      -6.188   0.868  -4.406  1.00  0.00     0.297 HD
ENDBRANCH  15  17
ENDBRANCH   4  15
BRANCH   5  19
ATOM     19  O   UNL     1      -4.844   0.033  -0.713  1.00  0.00    -0.507 OA
ATOM     20  H   UNL     1      -4.576   0.847  -0.252  1.00  0.00     0.293 HD
ENDBRANCH   5  19
TORSDOF 4
ENDMDL
MODEL 5
REMARK VINA RESULT:    -5.784      1.077      1.355
REMARK INTER + INTRA:          -7.357
REMARK INTER:                  -6.727
REMARK INTRA:                  -0.630
REMARK UNBOUND:                -0.558
REMARK SMILES O=C(O)c1cc(-c2ccc(F)cc2F)ccc1O
REMARK SMILES IDX 6 1 5 2 15 3 4 4 17 5 16 6 7 7 13 8 12 9 8 10 10 11 9 12
REMARK SMILES IDX 14 13 11 14 2 15 1 16 3 17 18 19
REMARK H PARENT 3 18 18 20
ROOT
ATOM      1  C   UNL     1      -9.452   0.101  -1.219  1.00  0.00    -0.014 A 
ATOM      2  C   UNL     1      -8.566  -0.098  -2.276  1.00  0.00     0.028 A 
ATOM      3  C   UNL     1      -8.971   0.192   0.087  1.00  0.00     0.013 A 
ATOM      4  C   UNL     1      -7.197  -0.206  -2.029  1.00  0.00     0.102 A 
ATOM      5  C   UNL     1      -6.716  -0.116  -0.723  1.00  0.00     0.130 A 
ATOM      6  C   UNL     1      -7.603   0.084   0.336  1.00  0.00     0.048 A 
ENDROOT
BRANCH   1   7
ATOM      7  C   UNL     1     -10.872   0.213  -1.475  1.00  0.00     0.018 A 
ATOM      8  C   UNL     1     -11.484  -0.628  -2.404  1.00  0.00     0.133 A 
ATOM      9  C   UNL     1     -12.854  -0.517  -2.648  1.00  0.00     0.079 A 
ATOM     10  C   UNL     1     -11.629   1.163  -0.789  1.00  0.00     0.015 A 
ATOM     11  C   UNL     1     -13.610   0.433  -1.963  1.00  0.00     0.126 A 
ATOM     12  C   UNL     1     -12.997   1.273  -1.033  1.00  0.00     0.040 A 
ATOM     13  F   UNL     1     -10.771  -1.545  -3.074  1.00  0.00    -0.206 F 
ATOM     14  F   UNL     1     -14.924   0.540  -2.197  1.00  0.00    -0.207 F 
ENDBRANCH   1   7
BRANCH   4  15
ATOM     15  C   UNL     1      -6.287  -0.414  -3.147  1.00  0.00     0.339 C 
ATOM     16  O   UNL     1      -6.366   0.146  -4.244  1.00  0.00    -0.246 OA
BRANCH  15  17
ATOM     17  O   UNL     1      -5.308  -1.313  -2.859  1.00  0.00    -0.478 OA
ATOM     18  H   UNL     1      -4.619  -1.338  -3.556  1.00  0.00     0.297 HD
ENDBRANCH  15  17
ENDBRANCH   4  15
BRANCH   5  19
ATOM     19  O   UNL     1      -5.382  -0.218  -0.460  1.00  0.00    -0.507 OA
ATOM     20  H   UNL     1      -5.217  -1.046   0.024  1.00  0.00     0.293 HD
ENDBRANCH   5  19
TORSDOF 4
ENDMDL
MODEL 6
REMARK VINA RESULT:    -5.770      1.674      2.925
REMARK INTER + INTRA:          -7.340
REMARK INTER:                  -6.696
REMARK INTRA:                  -0.644
REMARK UNBOUND:                -0.558
REMARK SMILES O=C(O)c1cc(-c2ccc(F)cc2F)ccc1O
REMARK SMILES IDX 6 1 5 2 15 3 4 4 17 5 16 6 7 7 13 8 12 9 8 10 10 11 9 12
REMARK SMILES IDX 14 13 11 14 2 15 1 16 3 17 18 19
REMARK H PARENT 3 18 18 20
ROOT
ATOM      1  C   UNL     1      -9.445   0.192  -1.498  1.00  0.00    -0.014 A 
ATOM      2  C   UNL     1      -8.978   0.330  -0.192  1.00  0.00     0.028 A 
ATOM      3  C   UNL     1      -8.541   0.070  -2.554  1.00  0.00     0.013 A 
ATOM      4  C   UNL     1      -7.605   0.347   0.060  1.00  0.00     0.102 A 
ATOM      5  C   UNL     1      -6.701   0.225  -0.996  1.00  0.00     0.130 A 
ATOM      6  C   UNL     1      -7.170   0.087  -2.303  1.00  0.00     0.048 A 
ENDROOT
BRANCH   1   7
ATOM      7  C   UNL     1     -10.868   0.177  -1.761  1.00  0.00     0.018 A 
ATOM      8  C   UNL     1     -11.711   1.074  -1.105  1.00  0.00     0.133 A 
ATOM      9  C   UNL     1     -13.083   1.056  -1.360  1.00  0.00     0.079 A 
ATOM     10  C   UNL     1     -11.396  -0.738  -2.672  1.00  0.00     0.015 A 
ATOM     11  C   UNL     1     -13.611   0.141  -2.271  1.00  0.00     0.126 A 
ATOM     12  C   UNL     1     -12.767  -0.756  -2.927  1.00  0.00     0.040 A 
ATOM     13  F   UNL     1     -11.220   1.958  -0.224  1.00  0.00    -0.206 F 
ATOM     14  F   UNL     1     -14.927   0.122  -2.516  1.00  0.00    -0.207 F 
ENDBRANCH   1   7
BRANCH   4  15
ATOM     15  C   UNL     1      -7.137   0.492   1.431  1.00  0.00     0.339 C 
ATOM     16  O   UNL     1      -7.643  -0.047   2.419  1.00  0.00    -0.246 OA
BRANCH  15  17
ATOM     17  O   UNL     1      -6.049   1.304   1.524  1.00  0.00    -0.478 OA
ATOM     18  H   UNL     1      -5.688   1.327   2.435  1.00  0.00     0.297 HD
ENDBRANCH  15  17
ENDBRANCH   4  15
BRANCH   5  19
ATOM     19  O   UNL     1      -5.357   0.238  -0.771  1.00  0.00    -0.507 OA
ATOM     20  H   UNL     1      -4.902  -0.140  -1.543  1.00  0.00     0.293 HD
ENDBRANCH   5  19
TORSDOF 4
ENDMDL
MODEL 7
REMARK VINA RESULT:    -5.518      4.087      6.334
REMARK INTER + INTRA:          -7.043
REMARK INTER:                  -5.959
REMARK INTRA:                  -1.084
REMARK UNBOUND:                -0.558
REMARK SMILES O=C(O)c1cc(-c2ccc(F)cc2F)ccc1O
REMARK SMILES IDX 6 1 5 2 15 3 4 4 17 5 16 6 7 7 13 8 12 9 8 10 10 11 9 12
REMARK SMILES IDX 14 13 11 14 2 15 1 16 3 17 18 19
REMARK H PARENT 3 18 18 20
ROOT
ATOM      1  C   UNL     1     -11.445   0.210  -1.977  1.00  0.00    -0.014 A 
ATOM      2  C   UNL     1     -12.156  -0.679  -2.781  1.00  0.00     0.028 A 
ATOM      3  C   UNL     1     -12.121   1.198  -1.262  1.00  0.00     0.013 A 
ATOM      4  C   UNL     1     -13.545  -0.582  -2.871  1.00  0.00     0.102 A 
ATOM      5  C   UNL     1     -14.222   0.406  -2.155  1.00  0.00     0.130 A 
ATOM      6  C   UNL     1     -13.509   1.296  -1.350  1.00  0.00     0.048 A 
ENDROOT
BRANCH   1   7
ATOM      7  C   UNL     1     -10.004   0.110  -1.886  1.00  0.00     0.018 A 
ATOM      8  C   UNL     1      -9.195   0.779  -2.805  1.00  0.00     0.133 A 
ATOM      9  C   UNL     1      -7.807   0.680  -2.713  1.00  0.00     0.079 A 
ATOM     10  C   UNL     1      -9.424  -0.656  -0.875  1.00  0.00     0.015 A 
ATOM     11  C   UNL     1      -7.228  -0.087  -1.703  1.00  0.00     0.126 A 
ATOM     12  C   UNL     1      -8.037  -0.755  -0.783  1.00  0.00     0.040 A 
ATOM     13  F   UNL     1      -9.736   1.518  -3.784  1.00  0.00    -0.206 F 
ATOM     14  F   UNL     1      -5.895  -0.183  -1.614  1.00  0.00    -0.207 F 
ENDBRANCH   1   7
BRANCH   4  15
ATOM     15  C   UNL     1     -14.270  -1.520  -3.716  1.00  0.00     0.339 C 
ATOM     16  O   UNL     1     -15.498  -1.586  -3.820  1.00  0.00    -0.246 OA
BRANCH  15  17
ATOM     17  O   UNL     1     -13.438  -2.347  -4.405  1.00  0.00    -0.478 OA
ATOM     18  H   UNL     1     -12.648  -1.872  -4.741  1.00  0.00     0.297 HD
ENDBRANCH  15  17
ENDBRANCH   4  15
BRANCH   5  19
ATOM     19  O   UNL     1     -15.578   0.518  -2.228  1.00  0.00    -0.507 OA
ATOM     20  H   UNL     1     -15.827   1.450  -2.099  1.00  0.00     0.293 HD
ENDBRANCH   5  19
TORSDOF 4
ENDMDL
MODEL 8
REMARK VINA RESULT:    -5.482      4.233      6.512
REMARK INTER + INTRA:          -7.001
REMARK INTER:                  -5.938
REMARK INTRA:                  -1.064
REMARK UNBOUND:                -0.558
REMARK SMILES O=C(O)c1cc(-c2ccc(F)cc2F)ccc1O
REMARK SMILES IDX 6 1 5 2 15 3 4 4 17 5 16 6 7 7 13 8 12 9 8 10 10 11 9 12
REMARK SMILES IDX 14 13 11 14 2 15 1 16 3 17 18 19
REMARK H PARENT 3 18 18 20
ROOT
ATOM      1  C   UNL     1     -11.591   0.222  -1.693  1.00  0.00    -0.014 A 
ATOM      2  C   UNL     1     -12.190  -0.692  -2.558  1.00  0.00     0.028 A 
ATOM      3  C   UNL     1     -12.363   1.206  -1.075  1.00  0.00     0.013 A 
ATOM      4  C   UNL     1     -13.561  -0.625  -2.806  1.00  0.00     0.102 A 
ATOM      5  C   UNL     1     -14.333   0.359  -2.187  1.00  0.00     0.130 A 
ATOM      6  C   UNL     1     -13.734   1.274  -1.321  1.00  0.00     0.048 A 
ENDROOT
BRANCH   1   7
ATOM      7  C   UNL     1     -10.168   0.153  -1.437  1.00  0.00     0.018 A 
ATOM      8  C   UNL     1      -9.693  -0.485  -0.291  1.00  0.00     0.133 A 
ATOM      9  C   UNL     1      -8.321  -0.549  -0.048  1.00  0.00     0.079 A 
ATOM     10  C   UNL     1      -9.272   0.725  -2.340  1.00  0.00     0.015 A 
ATOM     11  C   UNL     1      -7.425   0.024  -0.950  1.00  0.00     0.126 A 
ATOM     12  C   UNL     1      -7.901   0.661  -2.096  1.00  0.00     0.040 A 
ATOM     13  F   UNL     1     -10.541  -1.038   0.588  1.00  0.00    -0.206 F 
ATOM     14  F   UNL     1      -6.108  -0.037  -0.717  1.00  0.00    -0.207 F 
ENDBRANCH   1   7
BRANCH   4  15
ATOM     15  C   UNL     1     -14.168  -1.590  -3.712  1.00  0.00     0.339 C 
ATOM     16  O   UNL     1     -15.378  -1.801  -3.825  1.00  0.00    -0.246 OA
BRANCH  15  17
ATOM     17  O   UNL     1     -13.242  -2.259  -4.451  1.00  0.00    -0.478 OA
ATOM     18  H   UNL     1     -13.317  -3.230  -4.337  1.00  0.00     0.297 HD
ENDBRANCH  15  17
ENDBRANCH   4  15
BRANCH   5  19
ATOM     19  O   UNL     1     -15.675   0.442  -2.415  1.00  0.00    -0.507 OA
ATOM     20  H   UNL     1     -15.953  -0.318  -2.955  1.00  0.00     0.293 HD
ENDBRANCH   5  19
TORSDOF 4
ENDMDL
MODEL 9
REMARK VINA RESULT:    -5.473      4.323      6.654
REMARK INTER + INTRA:          -6.990
REMARK INTER:                  -5.912
REMARK INTRA:                  -1.078
REMARK UNBOUND:                -0.558
REMARK SMILES O=C(O)c1cc(-c2ccc(F)cc2F)ccc1O
REMARK SMILES IDX 6 1 5 2 15 3 4 4 17 5 16 6 7 7 13 8 12 9 8 10 10 11 9 12
REMARK SMILES IDX 14 13 11 14 2 15 1 16 3 17 18 19
REMARK H PARENT 3 18 18 20
ROOT
ATOM      1  C   UNL     1     -11.459   0.194  -1.968  1.00  0.00    -0.014 A 
ATOM      2  C   UNL     1     -12.162   1.152  -1.237  1.00  0.00     0.028 A 
ATOM      3  C   UNL     1     -12.144  -0.675  -2.818  1.00  0.00     0.013 A 
ATOM      4  C   UNL     1     -13.549   1.241  -1.356  1.00  0.00     0.102 A 
ATOM      5  C   UNL     1     -14.233   0.372  -2.205  1.00  0.00     0.130 A 
ATOM      6  C   UNL     1     -13.530  -0.586  -2.937  1.00  0.00     0.048 A 
ENDROOT
BRANCH   1   7
ATOM      7  C   UNL     1     -10.021   0.101  -1.844  1.00  0.00     0.018 A 
ATOM      8  C   UNL     1      -9.195   0.767  -2.751  1.00  0.00     0.133 A 
ATOM      9  C   UNL     1      -7.808   0.673  -2.629  1.00  0.00     0.079 A 
ATOM     10  C   UNL     1      -9.460  -0.656  -0.816  1.00  0.00     0.015 A 
ATOM     11  C   UNL     1      -7.248  -0.085  -1.601  1.00  0.00     0.126 A 
ATOM     12  C   UNL     1      -8.074  -0.749  -0.694  1.00  0.00     0.040 A 
ATOM     13  F   UNL     1      -9.718   1.496  -3.747  1.00  0.00    -0.206 F 
ATOM     14  F   UNL     1      -5.917  -0.175  -1.483  1.00  0.00    -0.207 F 
ENDBRANCH   1   7
BRANCH   4  15
ATOM     15  C   UNL     1     -14.264   2.248  -0.584  1.00  0.00     0.339 C 
ATOM     16  O   UNL     1     -15.491   2.365  -0.526  1.00  0.00    -0.246 OA
BRANCH  15  17
ATOM     17  O   UNL     1     -13.423   3.078   0.091  1.00  0.00    -0.478 OA
ATOM     18  H   UNL     1     -12.557   2.653   0.268  1.00  0.00     0.297 HD
ENDBRANCH  15  17
ENDBRANCH   4  15
BRANCH   5  19
ATOM     19  O   UNL     1     -15.588   0.443  -2.336  1.00  0.00    -0.507 OA
ATOM     20  H   UNL     1     -15.938  -0.449  -2.506  1.00  0.00     0.293 HD
ENDBRANCH   5  19
TORSDOF 4
ENDMDL
