MODEL 1
REMARK VINA RESULT:    -6.779      0.000      0.000
REMARK INTER + INTRA:          -8.633
REMARK INTER:                  -7.968
REMARK INTRA:                  -0.665
REMARK UNBOUND:                -0.665
REMARK SMILES O=C(O)c1cc(-c2ccc(F)cc2F)ccc1O
REMARK SMILES IDX 6 1 5 2 15 3 4 4 17 5 16 6 7 7 13 8 12 9 8 10 10 11 9 12
REMARK SMILES IDX 14 13 11 14 2 15 1 16 3 17 18 19
REMARK H PARENT 3 18 18 20
ROOT
ATOM      1  C   UNL     1      10.066   5.096  -0.511  1.00  0.00    -0.014 A 
ATOM      2  C   UNL     1       9.938   3.833  -1.087  1.00  0.00     0.028 A 
ATOM      3  C   UNL     1       8.954   5.721   0.054  1.00  0.00     0.013 A 
ATOM      4  C   UNL     1       8.698   3.194  -1.099  1.00  0.00     0.102 A 
ATOM      5  C   UNL     1       7.586   3.819  -0.534  1.00  0.00     0.130 A 
ATOM      6  C   UNL     1       7.714   5.083   0.042  1.00  0.00     0.048 A 
ENDROOT
BRANCH   1   7
ATOM      7  C   UNL     1      11.351   5.761  -0.499  1.00  0.00     0.018 A 
ATOM      8  C   UNL     1      12.489   5.076  -0.071  1.00  0.00     0.133 A 
ATOM      9  C   UNL     1      13.727   5.721  -0.061  1.00  0.00     0.079 A 
ATOM     10  C   UNL     1      11.451   7.087  -0.919  1.00  0.00     0.015 A 
ATOM     11  C   UNL     1      13.826   7.047  -0.480  1.00  0.00     0.126 A 
ATOM     12  C   UNL     1      12.688   7.730  -0.909  1.00  0.00     0.040 A 
ATOM     13  F   UNL     1      12.410   3.802   0.338  1.00  0.00    -0.206 F 
ATOM     14  F   UNL     1      15.014   7.666  -0.471  1.00  0.00    -0.207 F 
ENDBRANCH   1   7
BRANCH   4  15
ATOM     15  C   UNL     1       8.585   1.875  -1.706  1.00  0.00     0.339 C 
ATOM     16  O   UNL     1       7.707   1.526  -2.499  1.00  0.00    -0.246 OA
BRANCH  15  17
ATOM     17  O   UNL     1       9.575   1.033  -1.302  1.00  0.00    -0.478 OA
ATOM     18  H   UNL     1       9.446   0.735  -0.377  1.00  0.00     0.297 HD
ENDBRANCH  15  17
ENDBRANCH   4  15
BRANCH   5  19
ATOM     19  O   UNL     1       6.366   3.211  -0.535  1.00  0.00    -0.507 OA
ATOM     20  H   UNL     1       6.486   2.258  -0.382  1.00  0.00     0.293 HD
ENDBRANCH   5  19
TORSDOF 4
ENDMDL
MODEL 2
REMARK VINA RESULT:    -6.765      1.720      3.211
REMARK INTER + INTRA:          -8.617
REMARK INTER:                  -8.047
REMARK INTRA:                  -0.570
REMARK UNBOUND:                -0.665
REMARK SMILES O=C(O)c1cc(-c2ccc(F)cc2F)ccc1O
REMARK SMILES IDX 6 1 5 2 15 3 4 4 17 5 16 6 7 7 13 8 12 9 8 10 10 11 9 12
REMARK SMILES IDX 14 13 11 14 2 15 1 16 3 17 18 19
REMARK H PARENT 3 18 18 20
ROOT
ATOM      1  C   UNL     1       9.933   5.197  -0.616  1.00  0.00    -0.014 A 
ATOM      2  C   UNL     1       8.848   5.922  -0.126  1.00  0.00     0.028 A 
ATOM      3  C   UNL     1       9.742   3.910  -1.120  1.00  0.00     0.013 A 
ATOM      4  C   UNL     1       7.571   5.362  -0.139  1.00  0.00     0.102 A 
ATOM      5  C   UNL     1       7.379   4.075  -0.643  1.00  0.00     0.130 A 
ATOM      6  C   UNL     1       8.465   3.349  -1.134  1.00  0.00     0.048 A 
ENDROOT
BRANCH   1   7
ATOM      7  C   UNL     1      11.259   5.777  -0.601  1.00  0.00     0.018 A 
ATOM      8  C   UNL     1      11.451   7.095  -1.015  1.00  0.00     0.133 A 
ATOM      9  C   UNL     1      12.731   7.651  -1.000  1.00  0.00     0.079 A 
ATOM     10  C   UNL     1      12.345   5.015  -0.171  1.00  0.00     0.015 A 
ATOM     11  C   UNL     1      13.817   6.889  -0.570  1.00  0.00     0.126 A 
ATOM     12  C   UNL     1      13.624   5.571  -0.155  1.00  0.00     0.040 A 
ATOM     13  F   UNL     1      10.418   7.840  -1.434  1.00  0.00    -0.206 F 
ATOM     14  F   UNL     1      15.046   7.422  -0.555  1.00  0.00    -0.207 F 
ENDBRANCH   1   7
BRANCH   4  15
ATOM     15  C   UNL     1       6.450   6.136   0.377  1.00  0.00     0.339 C 
ATOM     16  O   UNL     1       5.659   5.756   1.244  1.00  0.00    -0.246 OA
BRANCH  15  17
ATOM     17  O   UNL     1       6.356   7.362  -0.205  1.00  0.00    -0.478 OA
ATOM     18  H   UNL     1       5.481   7.498  -0.627  1.00  0.00     0.297 HD
ENDBRANCH  15  17
ENDBRANCH   4  15
BRANCH   5  19
ATOM     19  O   UNL     1       6.139   3.510  -0.666  1.00  0.00    -0.507 OA
ATOM     20  H   UNL     1       6.072   2.922  -1.439  1.00  0.00     0.293 HD
ENDBRANCH   5  19
TORSDOF 4
ENDMDL
MODEL 3
REMARK VINA RESULT:    -6.761      1.326      2.776
REMARK INTER + INTRA:          -8.612
REMARK INTER:                  -8.049
REMARK INTRA:                  -0.563
REMARK UNBOUND:                -0.665
REMARK SMILES O=C(O)c1cc(-c2ccc(F)cc2F)ccc1O
REMARK SMILES IDX 6 1 5 2 15 3 4 4 17 5 16 6 7 7 13 8 12 9 8 10 10 11 9 12
REMARK SMILES IDX 14 13 11 14 2 15 1 16 3 17 18 19
REMARK H PARENT 3 18 18 20
ROOT
ATOM      1  C   UNL     1       9.935   5.151  -0.586  1.00  0.00    -0.014 A 
ATOM      2  C   UNL     1       8.853   5.890  -0.108  1.00  0.00     0.028 A 
ATOM      3  C   UNL     1       9.734   3.863  -1.083  1.00  0.00     0.013 A 
ATOM      4  C   UNL     1       7.570   5.342  -0.126  1.00  0.00     0.102 A 
ATOM      5  C   UNL     1       7.370   4.054  -0.624  1.00  0.00     0.130 A 
ATOM      6  C   UNL     1       8.453   3.314  -1.102  1.00  0.00     0.048 A 
ENDROOT
BRANCH   1   7
ATOM      7  C   UNL     1      11.266   5.719  -0.565  1.00  0.00     0.018 A 
ATOM      8  C   UNL     1      12.344   4.959  -0.112  1.00  0.00     0.133 A 
ATOM      9  C   UNL     1      13.626   5.510  -0.094  1.00  0.00     0.079 A 
ATOM     10  C   UNL     1      11.469   7.028  -1.002  1.00  0.00     0.015 A 
ATOM     11  C   UNL     1      13.829   6.819  -0.529  1.00  0.00     0.126 A 
ATOM     12  C   UNL     1      12.750   7.578  -0.983  1.00  0.00     0.040 A 
ATOM     13  F   UNL     1      12.166   3.700   0.313  1.00  0.00    -0.206 F 
ATOM     14  F   UNL     1      15.058   7.349  -0.512  1.00  0.00    -0.207 F 
ENDBRANCH   1   7
BRANCH   4  15
ATOM     15  C   UNL     1       6.454   6.130   0.377  1.00  0.00     0.339 C 
ATOM     16  O   UNL     1       5.657   5.765   1.245  1.00  0.00    -0.246 OA
BRANCH  15  17
ATOM     17  O   UNL     1       6.371   7.350  -0.219  1.00  0.00    -0.478 OA
ATOM     18  H   UNL     1       5.535   7.455  -0.720  1.00  0.00     0.297 HD
ENDBRANCH  15  17
ENDBRANCH   4  15
BRANCH   5  19
ATOM     19  O   UNL     1       6.125   3.500  -0.651  1.00  0.00    -0.507 OA
ATOM     20  H   UNL     1       5.462   4.212  -0.678  1.00  0.00     0.293 HD
ENDBRANCH   5  19
TORSDOF 4
ENDMDL
MODEL 4
REMARK VINA RESULT:    -6.755      1.124      1.606
REMARK INTER + INTRA:          -8.605
REMARK INTER:                  -7.946
REMARK INTRA:                  -0.659
REMARK UNBOUND:                -0.665
REMARK SMILES O=C(O)c1cc(-c2ccc(F)cc2F)ccc1O
REMARK SMILES IDX 6 1 5 2 15 3 4 4 17 5 16 6 7 7 13 8 12 9 8 10 10 11 9 12
REMARK SMILES IDX 14 13 11 14 2 15 1 16 3 17 18 19
REMARK H PARENT 3 18 18 20
ROOT
ATOM      1  C   UNL     1      10.044   5.114  -0.529  1.00  0.00    -0.014 A 
ATOM      2  C   UNL     1       9.927   3.846  -1.099  1.00  0.00     0.028 A 
ATOM      3  C   UNL     1       8.927   5.732   0.033  1.00  0.00     0.013 A 
ATOM      4  C   UNL     1       8.692   3.196  -1.107  1.00  0.00     0.102 A 
ATOM      5  C   UNL     1       7.575   3.815  -0.545  1.00  0.00     0.130 A 
ATOM      6  C   UNL     1       7.693   5.083   0.025  1.00  0.00     0.048 A 
ENDROOT
BRANCH   1   7
ATOM      7  C   UNL     1      11.324   5.789  -0.522  1.00  0.00     0.018 A 
ATOM      8  C   UNL     1      11.421   7.112  -0.956  1.00  0.00     0.133 A 
ATOM      9  C   UNL     1      12.657   7.759  -0.948  1.00  0.00     0.079 A 
ATOM     10  C   UNL     1      12.462   5.115  -0.078  1.00  0.00     0.015 A 
ATOM     11  C   UNL     1      13.794   7.085  -0.505  1.00  0.00     0.126 A 
ATOM     12  C   UNL     1      13.696   5.763  -0.070  1.00  0.00     0.040 A 
ATOM     13  F   UNL     1      10.338   7.772  -1.388  1.00  0.00    -0.206 F 
ATOM     14  F   UNL     1      14.981   7.705  -0.497  1.00  0.00    -0.207 F 
ENDBRANCH   1   7
BRANCH   4  15
ATOM     15  C   UNL     1       8.591   1.873  -1.706  1.00  0.00     0.339 C 
ATOM     16  O   UNL     1       7.718   1.514  -2.500  1.00  0.00    -0.246 OA
BRANCH  15  17
ATOM     17  O   UNL     1       9.585   1.040  -1.294  1.00  0.00    -0.478 OA
ATOM     18  H   UNL     1      10.095   1.422  -0.549  1.00  0.00     0.297 HD
ENDBRANCH  15  17
ENDBRANCH   4  15
BRANCH   5  19
ATOM     19  O   UNL     1       6.360   3.197  -0.542  1.00  0.00    -0.507 OA
ATOM     20  H   UNL     1       6.494   2.235  -0.602  1.00  0.00     0.293 HD
ENDBRANCH   5  19
TORSDOF 4
ENDMDL
MODEL 5
REMARK VINA RESULT:    -5.491      1.710      2.931
REMARK INTER + INTRA:          -7.120
REMARK INTER:                  -6.331
REMARK INTRA:                  -0.789
REMARK UNBOUND:                -0.665
REMARK SMILES O=C(O)c1cc(-c2ccc(F)cc2F)ccc1O
REMARK SMILES IDX 6 1 5 2 15 3 4 4 17 5 16 6 7 7 13 8 12 9 8 10 10 11 9 12
REMARK SMILES IDX 14 13 11 14 2 15 1 16 3 17 18 19
REMARK H PARENT 3 18 18 20
ROOT
ATOM      1  C   UNL     1      10.616   5.434  -0.330  1.00  0.00    -0.014 A 
ATOM      2  C   UNL     1       9.456   6.168  -0.085  1.00  0.00     0.028 A 
ATOM      3  C   UNL     1      10.535   4.062  -0.569  1.00  0.00     0.013 A 
ATOM      4  C   UNL     1       8.215   5.531  -0.080  1.00  0.00     0.102 A 
ATOM      5  C   UNL     1       8.134   4.159  -0.319  1.00  0.00     0.130 A 
ATOM      6  C   UNL     1       9.295   3.424  -0.564  1.00  0.00     0.048 A 
ENDROOT
BRANCH   1   7
ATOM      7  C   UNL     1      11.904   6.093  -0.334  1.00  0.00     0.018 A 
ATOM      8  C   UNL     1      12.763   5.946  -1.424  1.00  0.00     0.133 A 
ATOM      9  C   UNL     1      14.004   6.583  -1.423  1.00  0.00     0.079 A 
ATOM     10  C   UNL     1      12.285   6.878   0.754  1.00  0.00     0.015 A 
ATOM     11  C   UNL     1      14.385   7.368  -0.335  1.00  0.00     0.126 A 
ATOM     12  C   UNL     1      13.526   7.515   0.753  1.00  0.00     0.040 A 
ATOM     13  F   UNL     1      12.413   5.193  -2.476  1.00  0.00    -0.206 F 
ATOM     14  F   UNL     1      15.576   7.980  -0.335  1.00  0.00    -0.207 F 
ENDBRANCH   1   7
BRANCH   4  15
ATOM     15  C   UNL     1       7.015   6.316   0.177  1.00  0.00     0.339 C 
ATOM     16  O   UNL     1       6.786   7.439  -0.279  1.00  0.00    -0.246 OA
BRANCH  15  17
ATOM     17  O   UNL     1       6.139   5.672   0.995  1.00  0.00    -0.478 OA
ATOM     18  H   UNL     1       5.596   5.019   0.505  1.00  0.00     0.297 HD
ENDBRANCH  15  17
ENDBRANCH   4  15
BRANCH   5  19
ATOM     19  O   UNL     1       6.931   3.518  -0.319  1.00  0.00    -0.507 OA
ATOM     20  H   UNL     1       7.015   2.686  -0.816  1.00  0.00     0.293 HD
ENDBRANCH   5  19
TORSDOF 4
ENDMDL
MODEL 6
REMARK VINA RESULT:    -5.392      4.015      6.285
REMARK INTER + INTRA:          -7.003
REMARK INTER:                  -5.918
REMARK INTRA:                  -1.084
REMARK UNBOUND:                -0.665
REMARK SMILES O=C(O)c1cc(-c2ccc(F)cc2F)ccc1O
REMARK SMILES IDX 6 1 5 2 15 3 4 4 17 5 16 6 7 7 13 8 12 9 8 10 10 11 9 12
REMARK SMILES IDX 14 13 11 14 2 15 1 16 3 17 18 19
REMARK H PARENT 3 18 18 20
ROOT
ATOM      1  C   UNL     1      12.446   6.099  -0.575  1.00  0.00    -0.014 A 
ATOM      2  C   UNL     1      13.400   5.954  -1.582  1.00  0.00     0.028 A 
ATOM      3  C   UNL     1      12.698   6.942   0.507  1.00  0.00     0.013 A 
ATOM      4  C   UNL     1      14.605   6.652  -1.508  1.00  0.00     0.102 A 
ATOM      5  C   UNL     1      14.857   7.495  -0.426  1.00  0.00     0.130 A 
ATOM      6  C   UNL     1      13.903   7.641   0.582  1.00  0.00     0.048 A 
ENDROOT
BRANCH   1   7
ATOM      7  C   UNL     1      11.196   5.374  -0.651  1.00  0.00     0.018 A 
ATOM      8  C   UNL     1      11.100   4.087  -0.121  1.00  0.00     0.133 A 
ATOM      9  C   UNL     1       9.893   3.391  -0.196  1.00  0.00     0.079 A 
ATOM     10  C   UNL     1      10.086   5.965  -1.254  1.00  0.00     0.015 A 
ATOM     11  C   UNL     1       8.783   3.982  -0.800  1.00  0.00     0.126 A 
ATOM     12  C   UNL     1       8.880   5.270  -1.328  1.00  0.00     0.040 A 
ATOM     13  F   UNL     1      12.158   3.503   0.460  1.00  0.00    -0.206 F 
ATOM     14  F   UNL     1       7.624   3.315  -0.872  1.00  0.00    -0.207 F 
ENDBRANCH   1   7
BRANCH   4  15
ATOM     15  C   UNL     1      15.588   6.486  -2.571  1.00  0.00     0.339 C 
ATOM     16  O   UNL     1      16.648   7.109  -2.665  1.00  0.00    -0.246 OA
BRANCH  15  17
ATOM     17  O   UNL     1      15.214   5.546  -3.480  1.00  0.00    -0.478 OA
ATOM     18  H   UNL     1      15.327   5.864  -4.401  1.00  0.00     0.297 HD
ENDBRANCH  15  17
ENDBRANCH   4  15
BRANCH   5  19
ATOM     19  O   UNL     1      16.028   8.187  -0.335  1.00  0.00    -0.507 OA
ATOM     20  H   UNL     1      15.832   9.118  -0.135  1.00  0.00     0.293 HD
ENDBRANCH   5  19
TORSDOF 4
ENDMDL
MODEL 7
REMARK VINA RESULT:    -5.392      4.591      6.922
REMARK INTER + INTRA:          -7.003
REMARK INTER:                  -5.918
REMARK INTRA:                  -1.084
REMARK UNBOUND:                -0.665
REMARK SMILES O=C(O)c1cc(-c2ccc(F)cc2F)ccc1O
REMARK SMILES IDX 6 1 5 2 15 3 4 4 17 5 16 6 7 7 13 8 12 9 8 10 10 11 9 12
REMARK SMILES IDX 14 13 11 14 2 15 1 16 3 17 18 19
REMARK H PARENT 3 18 18 20
ROOT
ATOM      1  C   UNL     1      12.261   6.518  -0.532  1.00  0.00    -0.014 A 
ATOM      2  C   UNL     1      12.750   7.316   0.500  1.00  0.00     0.028 A 
ATOM      3  C   UNL     1      13.092   6.170  -1.598  1.00  0.00     0.013 A 
ATOM      4  C   UNL     1      14.070   7.769   0.469  1.00  0.00     0.102 A 
ATOM      5  C   UNL     1      14.900   7.421  -0.597  1.00  0.00     0.130 A 
ATOM      6  C   UNL     1      14.411   6.622  -1.631  1.00  0.00     0.048 A 
ENDROOT
BRANCH   1   7
ATOM      7  C   UNL     1      10.892   6.049  -0.501  1.00  0.00     0.018 A 
ATOM      8  C   UNL     1       9.872   6.830  -1.044  1.00  0.00     0.133 A 
ATOM      9  C   UNL     1       8.554   6.375  -1.011  1.00  0.00     0.079 A 
ATOM     10  C   UNL     1      10.595   4.814   0.074  1.00  0.00     0.015 A 
ATOM     11  C   UNL     1       8.256   5.141  -0.436  1.00  0.00     0.126 A 
ATOM     12  C   UNL     1       9.277   4.360   0.106  1.00  0.00     0.040 A 
ATOM     13  F   UNL     1      10.141   8.021  -1.598  1.00  0.00    -0.206 F 
ATOM     14  F   UNL     1       6.991   4.703  -0.404  1.00  0.00    -0.207 F 
ENDBRANCH   1   7
BRANCH   4  15
ATOM     15  C   UNL     1      14.561   8.602   1.557  1.00  0.00     0.339 C 
ATOM     16  O   UNL     1      15.724   8.992   1.689  1.00  0.00    -0.246 OA
BRANCH  15  17
ATOM     17  O   UNL     1      13.583   8.922   2.447  1.00  0.00    -0.478 OA
ATOM     18  H   UNL     1      13.849   9.663   3.031  1.00  0.00     0.297 HD
ENDBRANCH  15  17
ENDBRANCH   4  15
BRANCH   5  19
ATOM     19  O   UNL     1      16.192   7.852  -0.647  1.00  0.00    -0.507 OA
ATOM     20  H   UNL     1      16.684   7.467   0.099  1.00  0.00     0.293 HD
ENDBRANCH   5  19
TORSDOF 4
ENDMDL
MODEL 8
REMARK VINA RESULT:    -5.345      4.107      6.411
REMARK INTER + INTRA:          -6.947
REMARK INTER:                  -5.872
REMARK INTRA:                  -1.075
REMARK UNBOUND:                -0.665
REMARK SMILES O=C(O)c1cc(-c2ccc(F)cc2F)ccc1O
REMARK SMILES IDX 6 1 5 2 15 3 4 4 17 5 16 6 7 7 13 8 12 9 8 10 10 11 9 12
REMARK SMILES IDX 14 13 11 14 2 15 1 16 3 17 18 19
REMARK H PARENT 3 18 18 20
ROOT
ATOM      1  C   UNL     1      12.278   6.493  -0.536  1.00  0.00    -0.014 A 
ATOM      2  C   UNL     1      13.137   6.119  -1.568  1.00  0.00     0.028 A 
ATOM      3  C   UNL     1      12.729   7.341   0.475  1.00  0.00     0.013 A 
ATOM      4  C   UNL     1      14.449   6.593  -1.590  1.00  0.00     0.102 A 
ATOM      5  C   UNL     1      14.901   7.441  -0.579  1.00  0.00     0.130 A 
ATOM      6  C   UNL     1      14.040   7.816   0.454  1.00  0.00     0.048 A 
ENDROOT
BRANCH   1   7
ATOM      7  C   UNL     1      10.917   6.000  -0.512  1.00  0.00     0.018 A 
ATOM      8  C   UNL     1       9.884   6.771  -1.046  1.00  0.00     0.133 A 
ATOM      9  C   UNL     1       8.573   6.292  -1.021  1.00  0.00     0.079 A 
ATOM     10  C   UNL     1      10.640   4.753   0.046  1.00  0.00     0.015 A 
ATOM     11  C   UNL     1       8.297   5.045  -0.462  1.00  0.00     0.126 A 
ATOM     12  C   UNL     1       9.331   4.275   0.071  1.00  0.00     0.040 A 
ATOM     13  F   UNL     1      10.132   7.973  -1.584  1.00  0.00    -0.206 F 
ATOM     14  F   UNL     1       7.039   4.585  -0.437  1.00  0.00    -0.207 F 
ENDBRANCH   1   7
BRANCH   4  15
ATOM     15  C   UNL     1      15.331   6.190  -2.677  1.00  0.00     0.339 C 
ATOM     16  O   UNL     1      16.541   6.421  -2.737  1.00  0.00    -0.246 OA
BRANCH  15  17
ATOM     17  O   UNL     1      14.672   5.511  -3.654  1.00  0.00    -0.478 OA
ATOM     18  H   UNL     1      13.701   5.621  -3.584  1.00  0.00     0.297 HD
ENDBRANCH  15  17
ENDBRANCH   4  15
BRANCH   5  19
ATOM     19  O   UNL     1      16.179   7.916  -0.583  1.00  0.00    -0.507 OA
ATOM     20  H   UNL     1      16.167   8.855  -0.836  1.00  0.00     0.293 HD
ENDBRANCH   5  19
TORSDOF 4
ENDMDL
MODEL 9
REMARK VINA RESULT:    -4.090      6.079      8.452
REMARK INTER + INTRA:          -5.473
REMARK INTER:                  -4.415
REMARK INTRA:                  -1.057
REMARK UNBOUND:                -0.665
REMARK SMILES O=C(O)c1cc(-c2ccc(F)cc2F)ccc1O
REMARK SMILES IDX 6 1 5 2 15 3 4 4 17 5 16 6 7 7 13 8 12 9 8 10 10 11 9 12
REMARK SMILES IDX 14 13 11 14 2 15 1 16 3 17 18 19
REMARK H PARENT 3 18 18 20
ROOT
ATOM      1  C   UNL     1      14.528   8.275   1.495  1.00  0.00    -0.014 A 
ATOM      2  C   UNL     1      15.548   9.055   0.951  1.00  0.00     0.028 A 
ATOM      3  C   UNL     1      14.321   8.261   2.874  1.00  0.00     0.013 A 
ATOM      4  C   UNL     1      16.362   9.822   1.786  1.00  0.00     0.102 A 
ATOM      5  C   UNL     1      16.154   9.808   3.165  1.00  0.00     0.130 A 
ATOM      6  C   UNL     1      15.133   9.027   3.710  1.00  0.00     0.048 A 
ENDROOT
BRANCH   1   7
ATOM      7  C   UNL     1      13.685   7.479   0.630  1.00  0.00     0.018 A 
ATOM      8  C   UNL     1      12.625   8.073  -0.055  1.00  0.00     0.133 A 
ATOM      9  C   UNL     1      11.814   7.301  -0.889  1.00  0.00     0.079 A 
ATOM     10  C   UNL     1      13.935   6.115   0.480  1.00  0.00     0.015 A 
ATOM     11  C   UNL     1      12.064   5.938  -1.037  1.00  0.00     0.126 A 
ATOM     12  C   UNL     1      13.125   5.345  -0.353  1.00  0.00     0.040 A 
ATOM     13  F   UNL     1      12.369   9.382   0.079  1.00  0.00    -0.206 F 
ATOM     14  F   UNL     1      11.286   5.196  -1.837  1.00  0.00    -0.207 F 
ENDBRANCH   1   7
BRANCH   4  15
ATOM     15  C   UNL     1      17.421  10.630   1.198  1.00  0.00     0.339 C 
ATOM     16  O   UNL     1      18.350  11.151   1.821  1.00  0.00    -0.246 OA
BRANCH  15  17
ATOM     17  O   UNL     1      17.287  10.759  -0.150  1.00  0.00    -0.478 OA
ATOM     18  H   UNL     1      17.223   9.889  -0.595  1.00  0.00     0.297 HD
ENDBRANCH  15  17
ENDBRANCH   4  15
BRANCH   5  19
ATOM     19  O   UNL     1      16.937  10.550   3.999  1.00  0.00    -0.507 OA
ATOM     20  H   UNL     1      16.486  11.390   4.193  1.00  0.00     0.293 HD
ENDBRANCH   5  19
TORSDOF 4
ENDMDL
