MODEL 1
REMARK VINA RESULT:    -5.377      0.000      0.000
REMARK INTER + INTRA:          -7.393
REMARK INTER:                  -6.634
REMARK INTRA:                  -0.759
REMARK UNBOUND:                -0.759
REMARK SMILES Cc1ccc(C(=O)c2cc(O)c(O)c([N+](=O)[O-])c2)cc1
REMARK SMILES IDX 8 1 18 2 9 3 14 4 10 5 12 6 6 7 7 8 5 9 4 10 19 11 3 12
REMARK SMILES IDX 20 13 2 14 1 15 15 16 17 17 16 18 11 19 13 21
REMARK H PARENT 11 20 13 22
ROOT
ATOM      1  C   UNL     1       9.906   4.855  -1.446  1.00  0.00     0.033 A 
ATOM      2  C   UNL     1       9.086   5.697  -0.731  1.00  0.00     0.102 A 
ATOM      3  C   UNL     1       9.511   3.605  -1.862  1.00  0.00     0.063 A 
ATOM      4  C   UNL     1       7.798   5.266  -0.417  1.00  0.00     0.315 A 
ATOM      5  C   UNL     1       8.223   3.173  -1.546  1.00  0.00     0.165 A 
ATOM      6  C   UNL     1       7.365   4.004  -0.824  1.00  0.00     0.237 A 
ENDROOT
BRANCH   1   7
ATOM      7  C   UNL     1      11.286   5.317  -1.783  1.00  0.00     0.193 C 
ATOM      8  O   UNL     1      11.765   4.938  -2.863  1.00  0.00    -0.289 OA
BRANCH   7   9
ATOM      9  C   UNL     1      12.058   6.176  -0.900  1.00  0.00     0.023 A 
ATOM     10  C   UNL     1      12.983   5.618  -0.017  1.00  0.00     0.012 A 
ATOM     11  C   UNL     1      11.875   7.558  -0.936  1.00  0.00     0.012 A 
ATOM     12  C   UNL     1      13.723   6.442   0.830  1.00  0.00     0.004 A 
ATOM     13  C   UNL     1      12.616   8.383  -0.089  1.00  0.00     0.004 A 
ATOM     14  C   UNL     1      13.540   7.825   0.794  1.00  0.00    -0.051 A 
ATOM     15  C   UNL     1      14.331   8.705   1.700  1.00  0.00     0.044 C 
ENDBRANCH   7   9
ENDBRANCH   1   7
BRANCH   4  16
ATOM     16  N   UNL     1       6.938   6.126   0.321  1.00  0.00     0.066 N 
ATOM     17  O   UNL     1       7.062   7.367   0.185  1.00  0.00    -0.258 OA
ATOM     18  O   UNL     1       6.083   5.619   1.084  1.00  0.00    -0.258 OA
ENDBRANCH   4  16
BRANCH   5  19
ATOM     19  O   UNL     1       7.814   1.938  -1.951  1.00  0.00    -0.504 OA
ATOM     20  H   UNL     1       7.015   2.022  -2.496  1.00  0.00     0.293 HD
ENDBRANCH   5  19
BRANCH   6  21
ATOM     21  O   UNL     1       6.107   3.570  -0.522  1.00  0.00    -0.500 OA
ATOM     22  H   UNL     1       5.470   4.284  -0.677  1.00  0.00     0.294 HD
ENDBRANCH   6  21
TORSDOF 5
ENDMDL
MODEL 2
REMARK VINA RESULT:    -5.343      2.025      3.548
REMARK INTER + INTRA:          -7.351
REMARK INTER:                  -6.565
REMARK INTRA:                  -0.786
REMARK UNBOUND:                -0.759
REMARK SMILES Cc1ccc(C(=O)c2cc(O)c(O)c([N+](=O)[O-])c2)cc1
REMARK SMILES IDX 8 1 18 2 9 3 14 4 10 5 12 6 6 7 7 8 5 9 4 10 19 11 3 12
REMARK SMILES IDX 20 13 2 14 1 15 15 16 17 17 16 18 11 19 13 21
REMARK H PARENT 11 20 13 22
ROOT
ATOM      1  C   UNL     1       9.669   5.420   0.298  1.00  0.00     0.033 A 
ATOM      2  C   UNL     1       9.766   4.216  -0.359  1.00  0.00     0.102 A 
ATOM      3  C   UNL     1       8.465   5.990   0.637  1.00  0.00     0.063 A 
ATOM      4  C   UNL     1       8.592   3.542  -0.695  1.00  0.00     0.315 A 
ATOM      5  C   UNL     1       7.290   5.317   0.300  1.00  0.00     0.165 A 
ATOM      6  C   UNL     1       7.354   4.093  -0.365  1.00  0.00     0.237 A 
ENDROOT
BRANCH   1   7
ATOM      7  C   UNL     1      10.927   6.142   0.658  1.00  0.00     0.193 C 
ATOM      8  O   UNL     1      10.953   6.729   1.750  1.00  0.00    -0.289 OA
BRANCH   7   9
ATOM      9  C   UNL     1      12.087   6.171  -0.218  1.00  0.00     0.023 A 
ATOM     10  C   UNL     1      12.262   7.230  -1.109  1.00  0.00     0.012 A 
ATOM     11  C   UNL     1      13.025   5.140  -0.168  1.00  0.00     0.012 A 
ATOM     12  C   UNL     1      13.375   7.258  -1.949  1.00  0.00     0.004 A 
ATOM     13  C   UNL     1      14.139   5.167  -1.008  1.00  0.00     0.004 A 
ATOM     14  C   UNL     1      14.314   6.226  -1.899  1.00  0.00    -0.051 A 
ATOM     15  C   UNL     1      15.503   6.256  -2.798  1.00  0.00     0.044 C 
ENDBRANCH   7   9
ENDBRANCH   1   7
BRANCH   4  16
ATOM     16  N   UNL     1       8.677   2.296  -1.373  1.00  0.00     0.066 N 
ATOM     17  O   UNL     1       9.586   1.492  -1.053  1.00  0.00    -0.258 OA
ATOM     18  O   UNL     1       7.841   2.036  -2.270  1.00  0.00    -0.258 OA
ENDBRANCH   4  16
BRANCH   5  19
ATOM     19  O   UNL     1       6.087   5.867   0.629  1.00  0.00    -0.504 OA
ATOM     20  H   UNL     1       6.176   6.376   1.451  1.00  0.00     0.293 HD
ENDBRANCH   5  19
BRANCH   6  21
ATOM     21  O   UNL     1       6.198   3.443  -0.689  1.00  0.00    -0.500 OA
ATOM     22  H   UNL     1       5.462   4.076  -0.704  1.00  0.00     0.294 HD
ENDBRANCH   6  21
TORSDOF 5
ENDMDL
MODEL 3
REMARK VINA RESULT:    -4.764      1.819      2.343
REMARK INTER + INTRA:          -6.638
REMARK INTER:                  -5.910
REMARK INTRA:                  -0.727
REMARK UNBOUND:                -0.759
REMARK SMILES Cc1ccc(C(=O)c2cc(O)c(O)c([N+](=O)[O-])c2)cc1
REMARK SMILES IDX 8 1 18 2 9 3 14 4 10 5 12 6 6 7 7 8 5 9 4 10 19 11 3 12
REMARK SMILES IDX 20 13 2 14 1 15 15 16 17 17 16 18 11 19 13 21
REMARK H PARENT 11 20 13 22
ROOT
ATOM      1  C   UNL     1       9.707   3.791   0.020  1.00  0.00     0.033 A 
ATOM      2  C   UNL     1       8.860   4.713   0.590  1.00  0.00     0.102 A 
ATOM      3  C   UNL     1       9.297   2.889  -0.933  1.00  0.00     0.063 A 
ATOM      4  C   UNL     1       7.526   4.735   0.181  1.00  0.00     0.315 A 
ATOM      5  C   UNL     1       7.963   2.911  -1.341  1.00  0.00     0.165 A 
ATOM      6  C   UNL     1       7.077   3.835  -0.784  1.00  0.00     0.237 A 
ENDROOT
BRANCH   1   7
ATOM      7  C   UNL     1      11.135   3.767   0.458  1.00  0.00     0.193 C 
ATOM      8  O   UNL     1      11.444   2.959   1.347  1.00  0.00    -0.289 OA
BRANCH   7   9
ATOM      9  C   UNL     1      12.142   4.643  -0.119  1.00  0.00     0.023 A 
ATOM     10  C   UNL     1      11.776   5.893  -0.617  1.00  0.00     0.012 A 
ATOM     11  C   UNL     1      13.474   4.233  -0.174  1.00  0.00     0.012 A 
ATOM     12  C   UNL     1      12.743   6.733  -1.170  1.00  0.00     0.004 A 
ATOM     13  C   UNL     1      14.441   5.073  -0.728  1.00  0.00     0.004 A 
ATOM     14  C   UNL     1      14.075   6.324  -1.225  1.00  0.00    -0.051 A 
ATOM     15  C   UNL     1      15.107   7.222  -1.818  1.00  0.00     0.044 C 
ENDBRANCH   7   9
ENDBRANCH   1   7
BRANCH   4  16
ATOM     16  N   UNL     1       6.639   5.683   0.761  1.00  0.00     0.066 N 
ATOM     17  O   UNL     1       5.538   5.286   1.213  1.00  0.00    -0.258 OA
ATOM     18  O   UNL     1       6.983   6.888   0.804  1.00  0.00    -0.258 OA
ENDBRANCH   4  16
BRANCH   5  19
ATOM     19  O   UNL     1       7.538   2.025  -2.286  1.00  0.00    -0.504 OA
ATOM     20  H   UNL     1       6.814   2.420  -2.799  1.00  0.00     0.293 HD
ENDBRANCH   5  19
BRANCH   6  21
ATOM     21  O   UNL     1       5.775   3.847  -1.192  1.00  0.00    -0.500 OA
ATOM     22  H   UNL     1       5.200   4.066  -0.442  1.00  0.00     0.294 HD
ENDBRANCH   6  21
TORSDOF 5
ENDMDL
MODEL 4
REMARK VINA RESULT:    -4.754      1.653      3.123
REMARK INTER + INTRA:          -6.625
REMARK INTER:                  -5.982
REMARK INTRA:                  -0.643
REMARK UNBOUND:                -0.759
REMARK SMILES Cc1ccc(C(=O)c2cc(O)c(O)c([N+](=O)[O-])c2)cc1
REMARK SMILES IDX 8 1 18 2 9 3 14 4 10 5 12 6 6 7 7 8 5 9 4 10 19 11 3 12
REMARK SMILES IDX 20 13 2 14 1 15 15 16 17 17 16 18 11 19 13 21
REMARK H PARENT 11 20 13 22
ROOT
ATOM      1  C   UNL     1       8.732   5.924  -1.211  1.00  0.00     0.033 A 
ATOM      2  C   UNL     1       8.916   4.664  -1.730  1.00  0.00     0.102 A 
ATOM      3  C   UNL     1       7.736   6.223  -0.312  1.00  0.00     0.063 A 
ATOM      4  C   UNL     1       8.055   3.644  -1.326  1.00  0.00     0.315 A 
ATOM      5  C   UNL     1       6.874   5.203   0.092  1.00  0.00     0.165 A 
ATOM      6  C   UNL     1       7.034   3.913  -0.415  1.00  0.00     0.237 A 
ENDROOT
BRANCH   1   7
ATOM      7  C   UNL     1       9.654   7.017  -1.644  1.00  0.00     0.193 C 
ATOM      8  O   UNL     1       9.261   7.768  -2.550  1.00  0.00    -0.289 OA
BRANCH   7   9
ATOM      9  C   UNL     1      10.964   7.215  -1.045  1.00  0.00     0.023 A 
ATOM     10  C   UNL     1      11.501   8.499  -0.951  1.00  0.00     0.012 A 
ATOM     11  C   UNL     1      11.683   6.122  -0.563  1.00  0.00     0.012 A 
ATOM     12  C   UNL     1      12.757   8.689  -0.376  1.00  0.00     0.004 A 
ATOM     13  C   UNL     1      12.940   6.311   0.013  1.00  0.00     0.004 A 
ATOM     14  C   UNL     1      13.477   7.596   0.107  1.00  0.00    -0.051 A 
ATOM     15  C   UNL     1      14.820   7.799   0.720  1.00  0.00     0.044 C 
ENDBRANCH   7   9
ENDBRANCH   1   7
BRANCH   4  16
ATOM     16  N   UNL     1       8.233   2.336  -1.854  1.00  0.00     0.066 N 
ATOM     17  O   UNL     1       9.322   1.745  -1.655  1.00  0.00    -0.258 OA
ATOM     18  O   UNL     1       7.297   1.811  -2.501  1.00  0.00    -0.258 OA
ENDBRANCH   4  16
BRANCH   5  19
ATOM     19  O   UNL     1       5.881   5.481   0.983  1.00  0.00    -0.504 OA
ATOM     20  H   UNL     1       5.219   6.055   0.565  1.00  0.00     0.293 HD
ENDBRANCH   5  19
BRANCH   6  21
ATOM     21  O   UNL     1       6.185   2.923  -0.011  1.00  0.00    -0.500 OA
ATOM     22  H   UNL     1       5.408   2.903  -0.592  1.00  0.00     0.294 HD
ENDBRANCH   6  21
TORSDOF 5
ENDMDL
MODEL 5
REMARK VINA RESULT:    -4.688      3.748      6.853
REMARK INTER + INTRA:          -6.543
REMARK INTER:                  -5.552
REMARK INTRA:                  -0.991
REMARK UNBOUND:                -0.759
REMARK SMILES Cc1ccc(C(=O)c2cc(O)c(O)c([N+](=O)[O-])c2)cc1
REMARK SMILES IDX 8 1 18 2 9 3 14 4 10 5 12 6 6 7 7 8 5 9 4 10 19 11 3 12
REMARK SMILES IDX 20 13 2 14 1 15 15 16 17 17 16 18 11 19 13 21
REMARK H PARENT 11 20 13 22
ROOT
ATOM      1  C   UNL     1      12.658   7.082  -0.785  1.00  0.00     0.033 A 
ATOM      2  C   UNL     1      13.169   7.732   0.315  1.00  0.00     0.102 A 
ATOM      3  C   UNL     1      13.439   6.671  -1.838  1.00  0.00     0.063 A 
ATOM      4  C   UNL     1      14.540   7.983   0.364  1.00  0.00     0.315 A 
ATOM      5  C   UNL     1      14.810   6.923  -1.790  1.00  0.00     0.165 A 
ATOM      6  C   UNL     1      15.361   7.579  -0.688  1.00  0.00     0.237 A 
ENDROOT
BRANCH   1   7
ATOM      7  C   UNL     1      11.189   6.813  -0.837  1.00  0.00     0.193 C 
ATOM      8  O   UNL     1      10.428   7.788  -0.745  1.00  0.00    -0.289 OA
BRANCH   7   9
ATOM      9  C   UNL     1      10.647   5.472  -0.990  1.00  0.00     0.023 A 
ATOM     10  C   UNL     1      11.037   4.458  -0.115  1.00  0.00     0.012 A 
ATOM     11  C   UNL     1       9.738   5.200  -2.011  1.00  0.00     0.012 A 
ATOM     12  C   UNL     1      10.517   3.173  -0.261  1.00  0.00     0.004 A 
ATOM     13  C   UNL     1       9.217   3.914  -2.159  1.00  0.00     0.004 A 
ATOM     14  C   UNL     1       9.606   2.900  -1.283  1.00  0.00    -0.051 A 
ATOM     15  C   UNL     1       9.052   1.525  -1.440  1.00  0.00     0.044 C 
ENDBRANCH   7   9
ENDBRANCH   1   7
BRANCH   4  16
ATOM     16  N   UNL     1      15.083   8.653   1.494  1.00  0.00     0.066 N 
ATOM     17  O   UNL     1      14.507   8.535   2.603  1.00  0.00    -0.258 OA
ATOM     18  O   UNL     1      16.120   9.342   1.350  1.00  0.00    -0.258 OA
ENDBRANCH   4  16
BRANCH   5  19
ATOM     19  O   UNL     1      15.601   6.522  -2.825  1.00  0.00    -0.504 OA
ATOM     20  H   UNL     1      16.309   5.948  -2.490  1.00  0.00     0.293 HD
ENDBRANCH   5  19
BRANCH   6  21
ATOM     21  O   UNL     1      16.704   7.819  -0.652  1.00  0.00    -0.500 OA
ATOM     22  H   UNL     1      17.185   7.024  -0.930  1.00  0.00     0.294 HD
ENDBRANCH   6  21
TORSDOF 5
ENDMDL
MODEL 6
REMARK VINA RESULT:    -4.673      3.520      7.079
REMARK INTER + INTRA:          -6.524
REMARK INTER:                  -5.615
REMARK INTRA:                  -0.910
REMARK UNBOUND:                -0.759
REMARK SMILES Cc1ccc(C(=O)c2cc(O)c(O)c([N+](=O)[O-])c2)cc1
REMARK SMILES IDX 8 1 18 2 9 3 14 4 10 5 12 6 6 7 7 8 5 9 4 10 19 11 3 12
REMARK SMILES IDX 20 13 2 14 1 15 15 16 17 17 16 18 11 19 13 21
REMARK H PARENT 11 20 13 22
ROOT
ATOM      1  C   UNL     1      12.338   7.243  -0.635  1.00  0.00     0.033 A 
ATOM      2  C   UNL     1      13.302   6.760  -1.489  1.00  0.00     0.102 A 
ATOM      3  C   UNL     1      12.632   8.026   0.456  1.00  0.00     0.063 A 
ATOM      4  C   UNL     1      14.636   7.079  -1.237  1.00  0.00     0.315 A 
ATOM      5  C   UNL     1      13.966   8.344   0.709  1.00  0.00     0.165 A 
ATOM      6  C   UNL     1      14.969   7.871  -0.138  1.00  0.00     0.237 A 
ENDROOT
BRANCH   1   7
ATOM      7  C   UNL     1      10.909   6.901  -0.905  1.00  0.00     0.193 C 
ATOM      8  O   UNL     1      10.109   7.843  -1.010  1.00  0.00    -0.289 OA
BRANCH   7   9
ATOM      9  C   UNL     1      10.448   5.529  -1.043  1.00  0.00     0.023 A 
ATOM     10  C   UNL     1      10.903   4.549  -0.161  1.00  0.00     0.012 A 
ATOM     11  C   UNL     1       9.550   5.193  -2.056  1.00  0.00     0.012 A 
ATOM     12  C   UNL     1      10.460   3.233  -0.293  1.00  0.00     0.004 A 
ATOM     13  C   UNL     1       9.107   3.877  -2.189  1.00  0.00     0.004 A 
ATOM     14  C   UNL     1       9.562   2.896  -1.307  1.00  0.00    -0.051 A 
ATOM     15  C   UNL     1       9.090   1.489  -1.448  1.00  0.00     0.044 C 
ENDBRANCH   7   9
ENDBRANCH   1   7
BRANCH   4  16
ATOM     16  N   UNL     1      15.644   6.588  -2.111  1.00  0.00     0.066 N 
ATOM     17  O   UNL     1      16.675   7.279  -2.298  1.00  0.00    -0.258 OA
ATOM     18  O   UNL     1      15.475   5.478  -2.669  1.00  0.00    -0.258 OA
ENDBRANCH   4  16
BRANCH   5  19
ATOM     19  O   UNL     1      14.276   9.119   1.786  1.00  0.00    -0.504 OA
ATOM     20  H   UNL     1      13.584   9.788   1.916  1.00  0.00     0.293 HD
ENDBRANCH   5  19
BRANCH   6  21
ATOM     21  O   UNL     1      16.271   8.190   0.119  1.00  0.00    -0.500 OA
ATOM     22  H   UNL     1      16.848   7.745  -0.521  1.00  0.00     0.294 HD
ENDBRANCH   6  21
TORSDOF 5
ENDMDL
MODEL 7
REMARK VINA RESULT:    -4.640      3.639      6.530
REMARK INTER + INTRA:          -6.484
REMARK INTER:                  -5.578
REMARK INTRA:                  -0.906
REMARK UNBOUND:                -0.759
REMARK SMILES Cc1ccc(C(=O)c2cc(O)c(O)c([N+](=O)[O-])c2)cc1
REMARK SMILES IDX 8 1 18 2 9 3 14 4 10 5 12 6 6 7 7 8 5 9 4 10 19 11 3 12
REMARK SMILES IDX 20 13 2 14 1 15 15 16 17 17 16 18 11 19 13 21
REMARK H PARENT 11 20 13 22
ROOT
ATOM      1  C   UNL     1      13.054   5.656  -0.461  1.00  0.00     0.033 A 
ATOM      2  C   UNL     1      13.326   6.696   0.398  1.00  0.00     0.102 A 
ATOM      3  C   UNL     1      13.842   5.361  -1.549  1.00  0.00     0.063 A 
ATOM      4  C   UNL     1      14.451   7.484   0.156  1.00  0.00     0.315 A 
ATOM      5  C   UNL     1      14.967   6.150  -1.792  1.00  0.00     0.165 A 
ATOM      6  C   UNL     1      15.271   7.212  -0.939  1.00  0.00     0.237 A 
ENDROOT
BRANCH   1   7
ATOM      7  C   UNL     1      11.850   4.811  -0.202  1.00  0.00     0.193 C 
ATOM      8  O   UNL     1      12.027   3.591  -0.074  1.00  0.00    -0.289 OA
BRANCH   7   9
ATOM      9  C   UNL     1      10.512   5.372  -0.099  1.00  0.00     0.023 A 
ATOM     10  C   UNL     1      10.101   6.364  -0.989  1.00  0.00     0.012 A 
ATOM     11  C   UNL     1       9.640   4.917   0.890  1.00  0.00     0.012 A 
ATOM     12  C   UNL     1       8.818   6.902  -0.889  1.00  0.00     0.004 A 
ATOM     13  C   UNL     1       8.355   5.455   0.990  1.00  0.00     0.004 A 
ATOM     14  C   UNL     1       7.944   6.447   0.100  1.00  0.00    -0.051 A 
ATOM     15  C   UNL     1       6.573   7.023   0.206  1.00  0.00     0.044 C 
ENDBRANCH   7   9
ENDBRANCH   1   7
BRANCH   4  16
ATOM     16  N   UNL     1      14.745   8.562   1.035  1.00  0.00     0.066 N 
ATOM     17  O   UNL     1      15.943   8.890   1.212  1.00  0.00    -0.258 OA
ATOM     18  O   UNL     1      13.800   9.153   1.607  1.00  0.00    -0.258 OA
ENDBRANCH   4  16
BRANCH   5  19
ATOM     19  O   UNL     1      15.759   5.872  -2.864  1.00  0.00    -0.504 OA
ATOM     20  H   UNL     1      16.421   6.575  -2.971  1.00  0.00     0.293 HD
ENDBRANCH   5  19
BRANCH   6  21
ATOM     21  O   UNL     1      16.375   7.976  -1.186  1.00  0.00    -0.500 OA
ATOM     22  H   UNL     1      16.169   8.635  -1.867  1.00  0.00     0.294 HD
ENDBRANCH   6  21
TORSDOF 5
ENDMDL
MODEL 8
REMARK VINA RESULT:    -4.622      3.582      4.541
REMARK INTER + INTRA:          -6.462
REMARK INTER:                  -5.446
REMARK INTRA:                  -1.016
REMARK UNBOUND:                -0.759
REMARK SMILES Cc1ccc(C(=O)c2cc(O)c(O)c([N+](=O)[O-])c2)cc1
REMARK SMILES IDX 8 1 18 2 9 3 14 4 10 5 12 6 6 7 7 8 5 9 4 10 19 11 3 12
REMARK SMILES IDX 20 13 2 14 1 15 15 16 17 17 16 18 11 19 13 21
REMARK H PARENT 11 20 13 22
ROOT
ATOM      1  C   UNL     1      13.047   5.530  -0.340  1.00  0.00     0.033 A 
ATOM      2  C   UNL     1      11.699   5.660  -0.583  1.00  0.00     0.102 A 
ATOM      3  C   UNL     1      13.608   4.378   0.159  1.00  0.00     0.063 A 
ATOM      4  C   UNL     1      10.865   4.575  -0.313  1.00  0.00     0.315 A 
ATOM      5  C   UNL     1      12.773   3.293   0.430  1.00  0.00     0.165 A 
ATOM      6  C   UNL     1      11.402   3.392   0.193  1.00  0.00     0.237 A 
ENDROOT
BRANCH   1   7
ATOM      7  C   UNL     1      13.941   6.692  -0.629  1.00  0.00     0.193 C 
ATOM      8  O   UNL     1      13.900   7.650   0.156  1.00  0.00    -0.289 OA
BRANCH   7   9
ATOM      9  C   UNL     1      14.832   6.722  -1.777  1.00  0.00     0.023 A 
ATOM     10  C   UNL     1      14.315   6.588  -3.066  1.00  0.00     0.012 A 
ATOM     11  C   UNL     1      16.205   6.887  -1.591  1.00  0.00     0.012 A 
ATOM     12  C   UNL     1      15.171   6.618  -4.167  1.00  0.00     0.004 A 
ATOM     13  C   UNL     1      17.061   6.917  -2.692  1.00  0.00     0.004 A 
ATOM     14  C   UNL     1      16.544   6.783  -3.981  1.00  0.00    -0.051 A 
ATOM     15  C   UNL     1      17.458   6.813  -5.158  1.00  0.00     0.044 C 
ENDBRANCH   7   9
ENDBRANCH   1   7
BRANCH   4  16
ATOM     16  N   UNL     1       9.470   4.695  -0.560  1.00  0.00     0.066 N 
ATOM     17  O   UNL     1       8.668   4.089   0.191  1.00  0.00    -0.258 OA
ATOM     18  O   UNL     1       9.083   5.401  -1.519  1.00  0.00    -0.258 OA
ENDBRANCH   4  16
BRANCH   5  19
ATOM     19  O   UNL     1      13.311   2.143   0.924  1.00  0.00    -0.504 OA
ATOM     20  H   UNL     1      12.619   1.466   1.000  1.00  0.00     0.293 HD
ENDBRANCH   5  19
BRANCH   6  21
ATOM     21  O   UNL     1      10.596   2.323   0.462  1.00  0.00    -0.500 OA
ATOM     22  H   UNL     1      10.588   2.152   1.416  1.00  0.00     0.294 HD
ENDBRANCH   6  21
TORSDOF 5
ENDMDL
MODEL 9
REMARK VINA RESULT:    -4.494      1.283      2.922
REMARK INTER + INTRA:          -6.304
REMARK INTER:                  -5.616
REMARK INTRA:                  -0.687
REMARK UNBOUND:                -0.759
REMARK SMILES Cc1ccc(C(=O)c2cc(O)c(O)c([N+](=O)[O-])c2)cc1
REMARK SMILES IDX 8 1 18 2 9 3 14 4 10 5 12 6 6 7 7 8 5 9 4 10 19 11 3 12
REMARK SMILES IDX 20 13 2 14 1 15 15 16 17 17 16 18 11 19 13 21
REMARK H PARENT 11 20 13 22
ROOT
ATOM      1  C   UNL     1      10.366   5.209  -1.311  1.00  0.00     0.033 A 
ATOM      2  C   UNL     1      10.050   3.893  -1.558  1.00  0.00     0.102 A 
ATOM      3  C   UNL     1       9.447   6.126  -0.859  1.00  0.00     0.063 A 
ATOM      4  C   UNL     1       8.739   3.471  -1.339  1.00  0.00     0.315 A 
ATOM      5  C   UNL     1       8.135   5.703  -0.641  1.00  0.00     0.165 A 
ATOM      6  C   UNL     1       7.781   4.375  -0.881  1.00  0.00     0.237 A 
ENDROOT
BRANCH   1   7
ATOM      7  C   UNL     1      11.770   5.662  -1.546  1.00  0.00     0.193 C 
ATOM      8  O   UNL     1      12.317   5.300  -2.599  1.00  0.00    -0.289 OA
BRANCH   7   9
ATOM      9  C   UNL     1      12.490   6.495  -0.595  1.00  0.00     0.023 A 
ATOM     10  C   UNL     1      12.328   7.880  -0.618  1.00  0.00     0.012 A 
ATOM     11  C   UNL     1      13.342   5.909   0.340  1.00  0.00     0.012 A 
ATOM     12  C   UNL     1      13.018   8.678   0.294  1.00  0.00     0.004 A 
ATOM     13  C   UNL     1      14.033   6.707   1.253  1.00  0.00     0.004 A 
ATOM     14  C   UNL     1      13.871   8.092   1.230  1.00  0.00    -0.051 A 
ATOM     15  C   UNL     1      14.609   8.946   2.203  1.00  0.00     0.044 C 
ENDBRANCH   7   9
ENDBRANCH   1   7
BRANCH   4  16
ATOM     16  N   UNL     1       8.397   2.113  -1.589  1.00  0.00     0.066 N 
ATOM     17  O   UNL     1       8.998   1.211  -0.958  1.00  0.00    -0.258 OA
ATOM     18  O   UNL     1       7.504   1.859  -2.431  1.00  0.00    -0.258 OA
ENDBRANCH   4  16
BRANCH   5  19
ATOM     19  O   UNL     1       7.210   6.598  -0.193  1.00  0.00    -0.504 OA
ATOM     20  H   UNL     1       6.459   6.121   0.198  1.00  0.00     0.293 HD
ENDBRANCH   5  19
BRANCH   6  21
ATOM     21  O   UNL     1       6.495   3.973  -0.663  1.00  0.00    -0.500 OA
ATOM     22  H   UNL     1       6.324   3.150  -1.146  1.00  0.00     0.294 HD
ENDBRANCH   6  21
TORSDOF 5
ENDMDL
