MODEL 1
REMARK VINA RESULT:    -6.874      0.000      0.000
REMARK INTER + INTRA:          -8.644
REMARK INTER:                  -8.080
REMARK INTRA:                  -0.564
REMARK UNBOUND:                -0.564
REMARK SMILES O=C(O)c1cc(-c2ccc(F)cc2F)ccc1O
REMARK SMILES IDX 6 1 5 2 15 3 4 4 17 5 16 6 7 7 13 8 12 9 8 10 10 11 9 12
REMARK SMILES IDX 14 13 11 14 2 15 1 16 3 17 18 19
REMARK H PARENT 3 18 18 20
ROOT
ATOM      1  C   UNL     1      -4.319   6.062   1.300  1.00  0.00    -0.014 A 
ATOM      2  C   UNL     1      -4.537   4.991   2.165  1.00  0.00     0.028 A 
ATOM      3  C   UNL     1      -3.349   5.967   0.302  1.00  0.00     0.013 A 
ATOM      4  C   UNL     1      -3.784   3.824   2.034  1.00  0.00     0.102 A 
ATOM      5  C   UNL     1      -2.814   3.728   1.036  1.00  0.00     0.130 A 
ATOM      6  C   UNL     1      -2.596   4.801   0.170  1.00  0.00     0.048 A 
ENDROOT
BRANCH   1   7
ATOM      7  C   UNL     1      -5.098   7.274   1.437  1.00  0.00     0.018 A 
ATOM      8  C   UNL     1      -6.477   7.201   1.639  1.00  0.00     0.133 A 
ATOM      9  C   UNL     1      -7.225   8.372   1.770  1.00  0.00     0.079 A 
ATOM     10  C   UNL     1      -4.468   8.516   1.367  1.00  0.00     0.015 A 
ATOM     11  C   UNL     1      -6.595   9.614   1.700  1.00  0.00     0.126 A 
ATOM     12  C   UNL     1      -5.216   9.686   1.499  1.00  0.00     0.040 A 
ATOM     13  F   UNL     1      -7.099   6.015   1.705  1.00  0.00    -0.206 F 
ATOM     14  F   UNL     1      -7.311  10.738   1.825  1.00  0.00    -0.207 F 
ENDBRANCH   1   7
BRANCH   4  15
ATOM     15  C   UNL     1      -4.027   2.716   2.948  1.00  0.00     0.339 C 
ATOM     16  O   UNL     1      -3.168   2.153   3.631  1.00  0.00    -0.246 OA
BRANCH  15  17
ATOM     17  O   UNL     1      -5.337   2.347   2.979  1.00  0.00    -0.478 OA
ATOM     18  H   UNL     1      -5.632   1.976   2.121  1.00  0.00     0.297 HD
ENDBRANCH  15  17
ENDBRANCH   4  15
BRANCH   5  19
ATOM     19  O   UNL     1      -2.069   2.597   0.890  1.00  0.00    -0.507 OA
ATOM     20  H   UNL     1      -2.167   2.047   1.687  1.00  0.00     0.293 HD
ENDBRANCH   5  19
TORSDOF 4
ENDMDL
MODEL 2
REMARK VINA RESULT:    -6.855      1.231      2.711
REMARK INTER + INTRA:          -8.621
REMARK INTER:                  -8.049
REMARK INTRA:                  -0.572
REMARK UNBOUND:                -0.564
REMARK SMILES O=C(O)c1cc(-c2ccc(F)cc2F)ccc1O
REMARK SMILES IDX 6 1 5 2 15 3 4 4 17 5 16 6 7 7 13 8 12 9 8 10 10 11 9 12
REMARK SMILES IDX 14 13 11 14 2 15 1 16 3 17 18 19
REMARK H PARENT 3 18 18 20
ROOT
ATOM      1  C   UNL     1      -4.292   6.084   1.366  1.00  0.00    -0.014 A 
ATOM      2  C   UNL     1      -3.329   6.030   0.359  1.00  0.00     0.028 A 
ATOM      3  C   UNL     1      -4.460   5.002   2.229  1.00  0.00     0.013 A 
ATOM      4  C   UNL     1      -2.534   4.893   0.213  1.00  0.00     0.102 A 
ATOM      5  C   UNL     1      -2.702   3.811   1.076  1.00  0.00     0.130 A 
ATOM      6  C   UNL     1      -3.665   3.865   2.085  1.00  0.00     0.048 A 
ENDROOT
BRANCH   1   7
ATOM      7  C   UNL     1      -5.118   7.263   1.516  1.00  0.00     0.018 A 
ATOM      8  C   UNL     1      -6.497   7.135   1.685  1.00  0.00     0.133 A 
ATOM      9  C   UNL     1      -7.290   8.274   1.829  1.00  0.00     0.079 A 
ATOM     10  C   UNL     1      -4.532   8.529   1.494  1.00  0.00     0.015 A 
ATOM     11  C   UNL     1      -6.705   9.539   1.805  1.00  0.00     0.126 A 
ATOM     12  C   UNL     1      -5.325   9.666   1.638  1.00  0.00     0.040 A 
ATOM     13  F   UNL     1      -7.076   5.926   1.706  1.00  0.00    -0.206 F 
ATOM     14  F   UNL     1      -7.465  10.633   1.944  1.00  0.00    -0.207 F 
ENDBRANCH   1   7
BRANCH   4  15
ATOM     15  C   UNL     1      -1.534   4.857  -0.845  1.00  0.00     0.339 C 
ATOM     16  O   UNL     1      -1.447   3.987  -1.715  1.00  0.00    -0.246 OA
BRANCH  15  17
ATOM     17  O   UNL     1      -0.675   5.910  -0.782  1.00  0.00    -0.478 OA
ATOM     18  H   UNL     1      -0.268   6.101  -1.654  1.00  0.00     0.297 HD
ENDBRANCH  15  17
ENDBRANCH   4  15
BRANCH   5  19
ATOM     19  O   UNL     1      -1.935   2.691   0.952  1.00  0.00    -0.507 OA
ATOM     20  H   UNL     1      -1.730   2.346   1.838  1.00  0.00     0.293 HD
ENDBRANCH   5  19
TORSDOF 4
ENDMDL
MODEL 3
REMARK VINA RESULT:    -5.277      4.390      6.712
REMARK INTER + INTRA:          -6.766
REMARK INTER:                  -5.702
REMARK INTRA:                  -1.065
REMARK UNBOUND:                -0.564
REMARK SMILES O=C(O)c1cc(-c2ccc(F)cc2F)ccc1O
REMARK SMILES IDX 6 1 5 2 15 3 4 4 17 5 16 6 7 7 13 8 12 9 8 10 10 11 9 12
REMARK SMILES IDX 14 13 11 14 2 15 1 16 3 17 18 19
REMARK H PARENT 3 18 18 20
ROOT
ATOM      1  C   UNL     1      -5.793   8.283   1.636  1.00  0.00    -0.014 A 
ATOM      2  C   UNL     1      -6.185   9.021   0.520  1.00  0.00     0.028 A 
ATOM      3  C   UNL     1      -6.168   8.699   2.914  1.00  0.00     0.013 A 
ATOM      4  C   UNL     1      -6.953  10.175   0.680  1.00  0.00     0.102 A 
ATOM      5  C   UNL     1      -7.328  10.590   1.957  1.00  0.00     0.130 A 
ATOM      6  C   UNL     1      -6.936   9.852   3.075  1.00  0.00     0.048 A 
ENDROOT
BRANCH   1   7
ATOM      7  C   UNL     1      -4.995   7.087   1.471  1.00  0.00     0.018 A 
ATOM      8  C   UNL     1      -5.606   5.833   1.469  1.00  0.00     0.133 A 
ATOM      9  C   UNL     1      -4.833   4.682   1.309  1.00  0.00     0.079 A 
ATOM     10  C   UNL     1      -3.613   7.191   1.314  1.00  0.00     0.015 A 
ATOM     11  C   UNL     1      -3.452   4.786   1.153  1.00  0.00     0.126 A 
ATOM     12  C   UNL     1      -2.842   6.040   1.155  1.00  0.00     0.040 A 
ATOM     13  F   UNL     1      -6.933   5.716   1.621  1.00  0.00    -0.206 F 
ATOM     14  F   UNL     1      -2.710   3.682   1.000  1.00  0.00    -0.207 F 
ENDBRANCH   1   7
BRANCH   4  15
ATOM     15  C   UNL     1      -7.352  10.930  -0.499  1.00  0.00     0.339 C 
ATOM     16  O   UNL     1      -8.215  11.811  -0.524  1.00  0.00    -0.246 OA
BRANCH  15  17
ATOM     17  O   UNL     1      -6.659  10.561  -1.611  1.00  0.00    -0.478 OA
ATOM     18  H   UNL     1      -5.889  11.146  -1.771  1.00  0.00     0.297 HD
ENDBRANCH  15  17
ENDBRANCH   4  15
BRANCH   5  19
ATOM     19  O   UNL     1      -8.079  11.714   2.135  1.00  0.00    -0.507 OA
ATOM     20  H   UNL     1      -8.839  11.687   1.529  1.00  0.00     0.293 HD
ENDBRANCH   5  19
TORSDOF 4
ENDMDL
MODEL 4
REMARK VINA RESULT:    -5.251      4.045      6.283
REMARK INTER + INTRA:          -6.736
REMARK INTER:                  -5.673
REMARK INTRA:                  -1.064
REMARK UNBOUND:                -0.564
REMARK SMILES O=C(O)c1cc(-c2ccc(F)cc2F)ccc1O
REMARK SMILES IDX 6 1 5 2 15 3 4 4 17 5 16 6 7 7 13 8 12 9 8 10 10 11 9 12
REMARK SMILES IDX 14 13 11 14 2 15 1 16 3 17 18 19
REMARK H PARENT 3 18 18 20
ROOT
ATOM      1  C   UNL     1      -5.809   8.223   1.676  1.00  0.00    -0.014 A 
ATOM      2  C   UNL     1      -6.211   8.647   2.942  1.00  0.00     0.028 A 
ATOM      3  C   UNL     1      -6.153   8.969   0.549  1.00  0.00     0.013 A 
ATOM      4  C   UNL     1      -6.958   9.817   3.082  1.00  0.00     0.102 A 
ATOM      5  C   UNL     1      -7.302  10.563   1.955  1.00  0.00     0.130 A 
ATOM      6  C   UNL     1      -6.900  10.139   0.688  1.00  0.00     0.048 A 
ENDROOT
BRANCH   1   7
ATOM      7  C   UNL     1      -5.035   7.009   1.529  1.00  0.00     0.018 A 
ATOM      8  C   UNL     1      -5.675   5.768   1.516  1.00  0.00     0.133 A 
ATOM      9  C   UNL     1      -4.925   4.600   1.375  1.00  0.00     0.079 A 
ATOM     10  C   UNL     1      -3.649   7.081   1.401  1.00  0.00     0.015 A 
ATOM     11  C   UNL     1      -3.538   4.672   1.247  1.00  0.00     0.126 A 
ATOM     12  C   UNL     1      -2.900   5.913   1.260  1.00  0.00     0.040 A 
ATOM     13  F   UNL     1      -7.006   5.682   1.642  1.00  0.00    -0.206 F 
ATOM     14  F   UNL     1      -2.818   3.551   1.112  1.00  0.00    -0.207 F 
ENDBRANCH   1   7
BRANCH   4  15
ATOM     15  C   UNL     1      -7.368  10.242   4.413  1.00  0.00     0.339 C 
ATOM     16  O   UNL     1      -8.219  11.100   4.657  1.00  0.00    -0.246 OA
BRANCH  15  17
ATOM     17  O   UNL     1      -6.701   9.580   5.397  1.00  0.00    -0.478 OA
ATOM     18  H   UNL     1      -5.821   9.976   5.572  1.00  0.00     0.297 HD
ENDBRANCH  15  17
ENDBRANCH   4  15
BRANCH   5  19
ATOM     19  O   UNL     1      -8.031  11.709   2.070  1.00  0.00    -0.507 OA
ATOM     20  H   UNL     1      -8.970  11.479   2.174  1.00  0.00     0.293 HD
ENDBRANCH   5  19
TORSDOF 4
ENDMDL
MODEL 5
REMARK VINA RESULT:    -4.847      8.605     10.836
REMARK INTER + INTRA:          -6.261
REMARK INTER:                  -5.210
REMARK INTRA:                  -1.051
REMARK UNBOUND:                -0.564
REMARK SMILES O=C(O)c1cc(-c2ccc(F)cc2F)ccc1O
REMARK SMILES IDX 6 1 5 2 15 3 4 4 17 5 16 6 7 7 13 8 12 9 8 10 10 11 9 12
REMARK SMILES IDX 14 13 11 14 2 15 1 16 3 17 18 19
REMARK H PARENT 3 18 18 20
ROOT
ATOM      1  C   UNL     1      -7.020  13.270   7.351  1.00  0.00    -0.014 A 
ATOM      2  C   UNL     1      -7.676  13.211   8.579  1.00  0.00     0.028 A 
ATOM      3  C   UNL     1      -6.161  14.333   7.069  1.00  0.00     0.013 A 
ATOM      4  C   UNL     1      -7.475  14.214   9.528  1.00  0.00     0.102 A 
ATOM      5  C   UNL     1      -6.616  15.277   9.246  1.00  0.00     0.130 A 
ATOM      6  C   UNL     1      -5.959  15.336   8.017  1.00  0.00     0.048 A 
ENDROOT
BRANCH   1   7
ATOM      7  C   UNL     1      -7.230  12.231   6.366  1.00  0.00     0.018 A 
ATOM      8  C   UNL     1      -8.369  12.249   5.560  1.00  0.00     0.133 A 
ATOM      9  C   UNL     1      -8.567  11.245   4.612  1.00  0.00     0.079 A 
ATOM     10  C   UNL     1      -6.290  11.210   6.223  1.00  0.00     0.015 A 
ATOM     11  C   UNL     1      -7.628  10.224   4.470  1.00  0.00     0.126 A 
ATOM     12  C   UNL     1      -6.489  10.207   5.276  1.00  0.00     0.040 A 
ATOM     13  F   UNL     1      -9.283  13.221   5.686  1.00  0.00    -0.206 F 
ATOM     14  F   UNL     1      -7.818   9.260   3.560  1.00  0.00    -0.207 F 
ENDBRANCH   1   7
BRANCH   4  15
ATOM     15  C   UNL     1      -8.170  14.134  10.805  1.00  0.00     0.339 C 
ATOM     16  O   UNL     1      -8.397  15.086  11.555  1.00  0.00    -0.246 OA
BRANCH  15  17
ATOM     17  O   UNL     1      -8.559  12.865  11.104  1.00  0.00    -0.478 OA
ATOM     18  H   UNL     1      -8.358  12.631  12.035  1.00  0.00     0.297 HD
ENDBRANCH  15  17
ENDBRANCH   4  15
BRANCH   5  19
ATOM     19  O   UNL     1      -6.405  16.267  10.159  1.00  0.00    -0.507 OA
ATOM     20  H   UNL     1      -6.117  17.071   9.694  1.00  0.00     0.293 HD
ENDBRANCH   5  19
TORSDOF 4
ENDMDL
MODEL 6
REMARK VINA RESULT:    -4.819      1.594      1.961
REMARK INTER + INTRA:          -6.228
REMARK INTER:                  -5.264
REMARK INTRA:                  -0.964
REMARK UNBOUND:                -0.564
REMARK SMILES O=C(O)c1cc(-c2ccc(F)cc2F)ccc1O
REMARK SMILES IDX 6 1 5 2 15 3 4 4 17 5 16 6 7 7 13 8 12 9 8 10 10 11 9 12
REMARK SMILES IDX 14 13 11 14 2 15 1 16 3 17 18 19
REMARK H PARENT 3 18 18 20
ROOT
ATOM      1  C   UNL     1      -4.920   7.377   1.532  1.00  0.00    -0.014 A 
ATOM      2  C   UNL     1      -5.517   6.178   1.915  1.00  0.00     0.028 A 
ATOM      3  C   UNL     1      -3.541   7.436   1.327  1.00  0.00     0.013 A 
ATOM      4  C   UNL     1      -4.737   5.035   2.094  1.00  0.00     0.102 A 
ATOM      5  C   UNL     1      -3.359   5.093   1.888  1.00  0.00     0.130 A 
ATOM      6  C   UNL     1      -2.761   6.294   1.505  1.00  0.00     0.048 A 
ENDROOT
BRANCH   1   7
ATOM      7  C   UNL     1      -5.728   8.563   1.348  1.00  0.00     0.018 A 
ATOM      8  C   UNL     1      -6.329   9.179   2.447  1.00  0.00     0.133 A 
ATOM      9  C   UNL     1      -7.108  10.322   2.265  1.00  0.00     0.079 A 
ATOM     10  C   UNL     1      -5.905   9.091   0.070  1.00  0.00     0.015 A 
ATOM     11  C   UNL     1      -7.286  10.849   0.986  1.00  0.00     0.126 A 
ATOM     12  C   UNL     1      -6.684  10.234  -0.111  1.00  0.00     0.040 A 
ATOM     13  F   UNL     1      -6.171   8.683   3.682  1.00  0.00    -0.206 F 
ATOM     14  F   UNL     1      -8.033  11.946   0.811  1.00  0.00    -0.207 F 
ENDBRANCH   1   7
BRANCH   4  15
ATOM     15  C   UNL     1      -5.380   3.791   2.494  1.00  0.00     0.339 C 
ATOM     16  O   UNL     1      -4.830   2.862   3.090  1.00  0.00    -0.246 OA
BRANCH  15  17
ATOM     17  O   UNL     1      -6.693   3.748   2.137  1.00  0.00    -0.478 OA
ATOM     18  H   UNL     1      -7.282   3.985   2.884  1.00  0.00     0.297 HD
ENDBRANCH  15  17
ENDBRANCH   4  15
BRANCH   5  19
ATOM     19  O   UNL     1      -2.578   3.988   2.057  1.00  0.00    -0.507 OA
ATOM     20  H   UNL     1      -2.664   3.417   1.274  1.00  0.00     0.293 HD
ENDBRANCH   5  19
TORSDOF 4
ENDMDL
MODEL 7
REMARK VINA RESULT:    -4.246      6.290      8.615
REMARK INTER + INTRA:          -5.555
REMARK INTER:                  -4.896
REMARK INTRA:                  -0.659
REMARK UNBOUND:                -0.564
REMARK SMILES O=C(O)c1cc(-c2ccc(F)cc2F)ccc1O
REMARK SMILES IDX 6 1 5 2 15 3 4 4 17 5 16 6 7 7 13 8 12 9 8 10 10 11 9 12
REMARK SMILES IDX 14 13 11 14 2 15 1 16 3 17 18 19
REMARK H PARENT 3 18 18 20
ROOT
ATOM      1  C   UNL     1      -7.567  11.018  -0.321  1.00  0.00    -0.014 A 
ATOM      2  C   UNL     1      -7.580  12.367   0.031  1.00  0.00     0.028 A 
ATOM      3  C   UNL     1      -8.189  10.597  -1.497  1.00  0.00     0.013 A 
ATOM      4  C   UNL     1      -8.215  13.297  -0.793  1.00  0.00     0.102 A 
ATOM      5  C   UNL     1      -8.838  12.876  -1.969  1.00  0.00     0.130 A 
ATOM      6  C   UNL     1      -8.824  11.526  -2.321  1.00  0.00     0.048 A 
ENDROOT
BRANCH   1   7
ATOM      7  C   UNL     1      -6.910  10.052   0.533  1.00  0.00     0.018 A 
ATOM      8  C   UNL     1      -7.074  10.116   1.917  1.00  0.00     0.133 A 
ATOM      9  C   UNL     1      -6.438   9.183   2.737  1.00  0.00     0.079 A 
ATOM     10  C   UNL     1      -6.113   9.056  -0.030  1.00  0.00     0.015 A 
ATOM     11  C   UNL     1      -5.640   8.188   2.174  1.00  0.00     0.126 A 
ATOM     12  C   UNL     1      -5.478   8.124   0.790  1.00  0.00     0.040 A 
ATOM     13  F   UNL     1      -7.835  11.068   2.475  1.00  0.00    -0.206 F 
ATOM     14  F   UNL     1      -5.029   7.293   2.961  1.00  0.00    -0.207 F 
ENDBRANCH   1   7
BRANCH   4  15
ATOM     15  C   UNL     1      -8.217  14.701  -0.408  1.00  0.00     0.339 C 
ATOM     16  O   UNL     1      -8.395  15.651  -1.174  1.00  0.00    -0.246 OA
BRANCH  15  17
ATOM     17  O   UNL     1      -7.999  14.874   0.924  1.00  0.00    -0.478 OA
ATOM     18  H   UNL     1      -7.508  15.702   1.109  1.00  0.00     0.297 HD
ENDBRANCH  15  17
ENDBRANCH   4  15
BRANCH   5  19
ATOM     19  O   UNL     1      -9.463  13.769  -2.787  1.00  0.00    -0.507 OA
ATOM     20  H   UNL     1      -8.963  13.842  -3.619  1.00  0.00     0.293 HD
ENDBRANCH   5  19
TORSDOF 4
ENDMDL
MODEL 8
REMARK VINA RESULT:    -4.223      8.142     10.403
REMARK INTER + INTRA:          -5.528
REMARK INTER:                  -4.649
REMARK INTRA:                  -0.878
REMARK UNBOUND:                -0.564
REMARK SMILES O=C(O)c1cc(-c2ccc(F)cc2F)ccc1O
REMARK SMILES IDX 6 1 5 2 15 3 4 4 17 5 16 6 7 7 13 8 12 9 8 10 10 11 9 12
REMARK SMILES IDX 14 13 11 14 2 15 1 16 3 17 18 19
REMARK H PARENT 3 18 18 20
ROOT
ATOM      1  C   UNL     1      -7.333  13.118   6.942  1.00  0.00    -0.014 A 
ATOM      2  C   UNL     1      -8.525  13.189   6.223  1.00  0.00     0.028 A 
ATOM      3  C   UNL     1      -6.438  12.074   6.706  1.00  0.00     0.013 A 
ATOM      4  C   UNL     1      -8.824  12.217   5.268  1.00  0.00     0.102 A 
ATOM      5  C   UNL     1      -7.929  11.173   5.033  1.00  0.00     0.130 A 
ATOM      6  C   UNL     1      -6.735  11.102   5.752  1.00  0.00     0.048 A 
ENDROOT
BRANCH   1   7
ATOM      7  C   UNL     1      -7.023  14.126   7.933  1.00  0.00     0.018 A 
ATOM      8  C   UNL     1      -6.143  15.164   7.625  1.00  0.00     0.133 A 
ATOM      9  C   UNL     1      -5.847  16.133   8.584  1.00  0.00     0.079 A 
ATOM     10  C   UNL     1      -7.607  14.058   9.198  1.00  0.00     0.015 A 
ATOM     11  C   UNL     1      -6.430  16.065   9.849  1.00  0.00     0.126 A 
ATOM     12  C   UNL     1      -7.311  15.027  10.155  1.00  0.00     0.040 A 
ATOM     13  F   UNL     1      -5.571  15.242   6.416  1.00  0.00    -0.206 F 
ATOM     14  F   UNL     1      -6.146  16.995  10.770  1.00  0.00    -0.207 F 
ENDBRANCH   1   7
BRANCH   4  15
ATOM     15  C   UNL     1     -10.075  12.309   4.528  1.00  0.00     0.339 C 
ATOM     16  O   UNL     1     -11.199  12.118   4.999  1.00  0.00    -0.246 OA
BRANCH  15  17
ATOM     17  O   UNL     1      -9.881  12.640   3.222  1.00  0.00    -0.478 OA
ATOM     18  H   UNL     1      -9.166  12.108   2.814  1.00  0.00     0.297 HD
ENDBRANCH  15  17
ENDBRANCH   4  15
BRANCH   5  19
ATOM     19  O   UNL     1      -8.202  10.213   4.104  1.00  0.00    -0.507 OA
ATOM     20  H   UNL     1      -9.151  10.000   4.138  1.00  0.00     0.293 HD
ENDBRANCH   5  19
TORSDOF 4
ENDMDL
