MODEL 1
REMARK VINA RESULT:    -5.329      0.000      0.000
REMARK INTER + INTRA:          -7.321
REMARK INTER:                  -6.575
REMARK INTRA:                  -0.746
REMARK UNBOUND:                -0.746
REMARK SMILES Cc1ccc(C(=O)c2cc(O)c(O)c([N+](=O)[O-])c2)cc1
REMARK SMILES IDX 8 1 18 2 9 3 14 4 10 5 12 6 6 7 7 8 5 9 4 10 19 11 3 12
REMARK SMILES IDX 20 13 2 14 1 15 15 16 17 17 16 18 11 19 13 21
REMARK H PARENT 11 20 13 22
ROOT
ATOM      1  C   UNL     1      -4.379   5.969   0.384  1.00  0.00     0.033 A 
ATOM      2  C   UNL     1      -4.697   5.126   1.424  1.00  0.00     0.102 A 
ATOM      3  C   UNL     1      -3.324   5.739  -0.467  1.00  0.00     0.063 A 
ATOM      4  C   UNL     1      -3.917   3.987   1.621  1.00  0.00     0.315 A 
ATOM      5  C   UNL     1      -2.543   4.600  -0.269  1.00  0.00     0.165 A 
ATOM      6  C   UNL     1      -2.840   3.724   0.776  1.00  0.00     0.237 A 
ENDROOT
BRANCH   1   7
ATOM      7  C   UNL     1      -5.215   7.189   0.172  1.00  0.00     0.193 C 
ATOM      8  O   UNL     1      -5.442   7.526  -0.999  1.00  0.00    -0.289 OA
BRANCH   7   9
ATOM      9  C   UNL     1      -5.752   7.968   1.277  1.00  0.00     0.023 A 
ATOM     10  C   UNL     1      -5.077   9.104   1.723  1.00  0.00     0.012 A 
ATOM     11  C   UNL     1      -6.943   7.579   1.890  1.00  0.00     0.012 A 
ATOM     12  C   UNL     1      -5.593   9.850   2.782  1.00  0.00     0.004 A 
ATOM     13  C   UNL     1      -7.460   8.325   2.949  1.00  0.00     0.004 A 
ATOM     14  C   UNL     1      -6.785   9.461   3.396  1.00  0.00    -0.051 A 
ATOM     15  C   UNL     1      -7.335  10.259   4.528  1.00  0.00     0.044 C 
ENDBRANCH   7   9
ENDBRANCH   1   7
BRANCH   4  16
ATOM     16  N   UNL     1      -4.234   3.106   2.691  1.00  0.00     0.066 N 
ATOM     17  O   UNL     1      -5.439   2.849   2.928  1.00  0.00    -0.258 OA
ATOM     18  O   UNL     1      -3.301   2.611   3.366  1.00  0.00    -0.258 OA
ENDBRANCH   4  16
BRANCH   5  19
ATOM     19  O   UNL     1      -1.494   4.356  -1.103  1.00  0.00    -0.504 OA
ATOM     20  H   UNL     1      -1.702   3.597  -1.673  1.00  0.00     0.293 HD
ENDBRANCH   5  19
BRANCH   6  21
ATOM     21  O   UNL     1      -2.068   2.613   0.959  1.00  0.00    -0.500 OA
ATOM     22  H   UNL     1      -1.849   2.222   0.099  1.00  0.00     0.294 HD
ENDBRANCH   6  21
TORSDOF 5
ENDMDL
MODEL 2
REMARK VINA RESULT:    -5.325      2.051      3.552
REMARK INTER + INTRA:          -7.316
REMARK INTER:                  -6.570
REMARK INTRA:                  -0.746
REMARK UNBOUND:                -0.746
REMARK SMILES Cc1ccc(C(=O)c2cc(O)c(O)c([N+](=O)[O-])c2)cc1
REMARK SMILES IDX 8 1 18 2 9 3 14 4 10 5 12 6 6 7 7 8 5 9 4 10 19 11 3 12
REMARK SMILES IDX 20 13 2 14 1 15 15 16 17 17 16 18 11 19 13 21
REMARK H PARENT 11 20 13 22
ROOT
ATOM      1  C   UNL     1      -4.071   5.941   2.252  1.00  0.00     0.033 A 
ATOM      2  C   UNL     1      -3.293   6.095   1.128  1.00  0.00     0.102 A 
ATOM      3  C   UNL     1      -4.181   4.748   2.926  1.00  0.00     0.063 A 
ATOM      4  C   UNL     1      -2.583   4.992   0.653  1.00  0.00     0.315 A 
ATOM      5  C   UNL     1      -3.472   3.645   2.450  1.00  0.00     0.165 A 
ATOM      6  C   UNL     1      -2.672   3.767   1.313  1.00  0.00     0.237 A 
ENDROOT
BRANCH   1   7
ATOM      7  C   UNL     1      -4.832   7.121   2.762  1.00  0.00     0.193 C 
ATOM      8  O   UNL     1      -4.921   7.253   3.992  1.00  0.00    -0.289 OA
BRANCH   7   9
ATOM      9  C   UNL     1      -5.451   8.092   1.874  1.00  0.00     0.023 A 
ATOM     10  C   UNL     1      -6.803   7.979   1.551  1.00  0.00     0.012 A 
ATOM     11  C   UNL     1      -4.693   9.137   1.346  1.00  0.00     0.012 A 
ATOM     12  C   UNL     1      -7.397   8.911   0.700  1.00  0.00     0.004 A 
ATOM     13  C   UNL     1      -5.286  10.070   0.494  1.00  0.00     0.004 A 
ATOM     14  C   UNL     1      -6.639   9.957   0.171  1.00  0.00    -0.051 A 
ATOM     15  C   UNL     1      -7.274  10.951  -0.740  1.00  0.00     0.044 C 
ENDBRANCH   7   9
ENDBRANCH   1   7
BRANCH   4  16
ATOM     16  N   UNL     1      -1.774   5.136  -0.507  1.00  0.00     0.066 N 
ATOM     17  O   UNL     1      -1.770   4.217  -1.361  1.00  0.00    -0.258 OA
ATOM     18  O   UNL     1      -1.089   6.177  -0.643  1.00  0.00    -0.258 OA
ENDBRANCH   4  16
BRANCH   5  19
ATOM     19  O   UNL     1      -3.568   2.454   3.106  1.00  0.00    -0.504 OA
ATOM     20  H   UNL     1      -3.050   1.781   2.635  1.00  0.00     0.293 HD
ENDBRANCH   5  19
BRANCH   6  21
ATOM     21  O   UNL     1      -1.983   2.681   0.858  1.00  0.00    -0.500 OA
ATOM     22  H   UNL     1      -2.598   2.051   0.452  1.00  0.00     0.294 HD
ENDBRANCH   6  21
TORSDOF 5
ENDMDL
MODEL 3
REMARK VINA RESULT:    -4.497      1.669      3.132
REMARK INTER + INTRA:          -6.294
REMARK INTER:                  -5.686
REMARK INTRA:                  -0.609
REMARK UNBOUND:                -0.746
REMARK SMILES Cc1ccc(C(=O)c2cc(O)c(O)c([N+](=O)[O-])c2)cc1
REMARK SMILES IDX 8 1 18 2 9 3 14 4 10 5 12 6 6 7 7 8 5 9 4 10 19 11 3 12
REMARK SMILES IDX 20 13 2 14 1 15 15 16 17 17 16 18 11 19 13 21
REMARK H PARENT 11 20 13 22
ROOT
ATOM      1  C   UNL     1      -4.950   4.676   1.259  1.00  0.00     0.033 A 
ATOM      2  C   UNL     1      -4.084   4.937   0.223  1.00  0.00     0.102 A 
ATOM      3  C   UNL     1      -4.641   3.826   2.294  1.00  0.00     0.063 A 
ATOM      4  C   UNL     1      -2.836   4.314   0.224  1.00  0.00     0.315 A 
ATOM      5  C   UNL     1      -3.394   3.201   2.295  1.00  0.00     0.165 A 
ATOM      6  C   UNL     1      -2.491   3.446   1.259  1.00  0.00     0.237 A 
ENDROOT
BRANCH   1   7
ATOM      7  C   UNL     1      -6.287   5.344   1.259  1.00  0.00     0.193 C 
ATOM      8  O   UNL     1      -7.251   4.686   0.839  1.00  0.00    -0.289 OA
BRANCH   7   9
ATOM      9  C   UNL     1      -6.477   6.708   1.725  1.00  0.00     0.023 A 
ATOM     10  C   UNL     1      -7.665   7.067   2.363  1.00  0.00     0.012 A 
ATOM     11  C   UNL     1      -5.472   7.656   1.536  1.00  0.00     0.012 A 
ATOM     12  C   UNL     1      -7.847   8.376   2.811  1.00  0.00     0.004 A 
ATOM     13  C   UNL     1      -5.654   8.965   1.984  1.00  0.00     0.004 A 
ATOM     14  C   UNL     1      -6.842   9.325   2.622  1.00  0.00    -0.051 A 
ATOM     15  C   UNL     1      -7.037  10.724   3.099  1.00  0.00     0.044 C 
ENDBRANCH   7   9
ENDBRANCH   1   7
BRANCH   4  16
ATOM     16  N   UNL     1      -1.929   4.575  -0.840  1.00  0.00     0.066 N 
ATOM     17  O   UNL     1      -1.504   5.744  -1.000  1.00  0.00    -0.258 OA
ATOM     18  O   UNL     1      -1.581   3.629  -1.585  1.00  0.00    -0.258 OA
ENDBRANCH   4  16
BRANCH   5  19
ATOM     19  O   UNL     1      -3.070   2.356   3.313  1.00  0.00    -0.504 OA
ATOM     20  H   UNL     1      -3.066   1.441   2.988  1.00  0.00     0.293 HD
ENDBRANCH   5  19
BRANCH   6  21
ATOM     21  O   UNL     1      -1.273   2.830   1.271  1.00  0.00    -0.500 OA
ATOM     22  H   UNL     1      -0.902   2.859   2.167  1.00  0.00     0.294 HD
ENDBRANCH   6  21
TORSDOF 5
ENDMDL
MODEL 4
REMARK VINA RESULT:    -4.440      3.920      7.139
REMARK INTER + INTRA:          -6.225
REMARK INTER:                  -5.549
REMARK INTRA:                  -0.676
REMARK UNBOUND:                -0.746
REMARK SMILES Cc1ccc(C(=O)c2cc(O)c(O)c([N+](=O)[O-])c2)cc1
REMARK SMILES IDX 8 1 18 2 9 3 14 4 10 5 12 6 6 7 7 8 5 9 4 10 19 11 3 12
REMARK SMILES IDX 20 13 2 14 1 15 15 16 17 17 16 18 11 19 13 21
REMARK H PARENT 11 20 13 22
ROOT
ATOM      1  C   UNL     1      -6.289   8.938   1.860  1.00  0.00     0.033 A 
ATOM      2  C   UNL     1      -6.853   9.988   1.172  1.00  0.00     0.102 A 
ATOM      3  C   UNL     1      -6.376   8.808   3.225  1.00  0.00     0.063 A 
ATOM      4  C   UNL     1      -7.544  10.962   1.892  1.00  0.00     0.315 A 
ATOM      5  C   UNL     1      -7.066   9.783   3.946  1.00  0.00     0.165 A 
ATOM      6  C   UNL     1      -7.651  10.860   3.279  1.00  0.00     0.237 A 
ENDROOT
BRANCH   1   7
ATOM      7  C   UNL     1      -5.549   7.894   1.088  1.00  0.00     0.193 C 
ATOM      8  O   UNL     1      -5.176   8.190  -0.057  1.00  0.00    -0.289 OA
BRANCH   7   9
ATOM      9  C   UNL     1      -5.263   6.577   1.635  1.00  0.00     0.023 A 
ATOM     10  C   UNL     1      -4.058   6.343   2.297  1.00  0.00     0.012 A 
ATOM     11  C   UNL     1      -6.194   5.548   1.497  1.00  0.00     0.012 A 
ATOM     12  C   UNL     1      -3.784   5.080   2.821  1.00  0.00     0.004 A 
ATOM     13  C   UNL     1      -5.921   4.284   2.021  1.00  0.00     0.004 A 
ATOM     14  C   UNL     1      -4.716   4.050   2.684  1.00  0.00    -0.051 A 
ATOM     15  C   UNL     1      -4.422   2.700   3.243  1.00  0.00     0.044 C 
ENDBRANCH   7   9
ENDBRANCH   1   7
BRANCH   4  16
ATOM     16  N   UNL     1      -8.133  12.052   1.195  1.00  0.00     0.066 N 
ATOM     17  O   UNL     1      -8.167  12.023  -0.059  1.00  0.00    -0.258 OA
ATOM     18  O   UNL     1      -8.602  13.010   1.854  1.00  0.00    -0.258 OA
ENDBRANCH   4  16
BRANCH   5  19
ATOM     19  O   UNL     1      -7.163   9.670   5.300  1.00  0.00    -0.504 OA
ATOM     20  H   UNL     1      -7.845  10.278   5.630  1.00  0.00     0.293 HD
ENDBRANCH   5  19
BRANCH   6  21
ATOM     21  O   UNL     1      -8.324  11.807   3.994  1.00  0.00    -0.500 OA
ATOM     22  H   UNL     1      -8.983  12.238   3.427  1.00  0.00     0.294 HD
ENDBRANCH   6  21
TORSDOF 5
ENDMDL
MODEL 5
REMARK VINA RESULT:    -4.433      1.901      2.280
REMARK INTER + INTRA:          -6.216
REMARK INTER:                  -5.512
REMARK INTRA:                  -0.704
REMARK UNBOUND:                -0.746
REMARK SMILES Cc1ccc(C(=O)c2cc(O)c(O)c([N+](=O)[O-])c2)cc1
REMARK SMILES IDX 8 1 18 2 9 3 14 4 10 5 12 6 6 7 7 8 5 9 4 10 19 11 3 12
REMARK SMILES IDX 20 13 2 14 1 15 15 16 17 17 16 18 11 19 13 21
REMARK H PARENT 11 20 13 22
ROOT
ATOM      1  C   UNL     1      -4.214   6.213   2.209  1.00  0.00     0.033 A 
ATOM      2  C   UNL     1      -4.477   5.017   2.835  1.00  0.00     0.102 A 
ATOM      3  C   UNL     1      -3.295   6.337   1.194  1.00  0.00     0.063 A 
ATOM      4  C   UNL     1      -3.783   3.880   2.421  1.00  0.00     0.315 A 
ATOM      5  C   UNL     1      -2.600   5.200   0.780  1.00  0.00     0.165 A 
ATOM      6  C   UNL     1      -2.845   3.971   1.394  1.00  0.00     0.237 A 
ENDROOT
BRANCH   1   7
ATOM      7  C   UNL     1      -4.957   7.431   2.652  1.00  0.00     0.193 C 
ATOM      8  O   UNL     1      -5.042   7.632   3.873  1.00  0.00    -0.289 OA
BRANCH   7   9
ATOM      9  C   UNL     1      -5.565   8.358   1.712  1.00  0.00     0.023 A 
ATOM     10  C   UNL     1      -4.809   9.397   1.168  1.00  0.00     0.012 A 
ATOM     11  C   UNL     1      -6.905   8.209   1.353  1.00  0.00     0.012 A 
ATOM     12  C   UNL     1      -5.393  10.286   0.266  1.00  0.00     0.004 A 
ATOM     13  C   UNL     1      -7.489   9.099   0.450  1.00  0.00     0.004 A 
ATOM     14  C   UNL     1      -6.733  10.137  -0.093  1.00  0.00    -0.051 A 
ATOM     15  C   UNL     1      -7.357  11.089  -1.056  1.00  0.00     0.044 C 
ENDBRANCH   7   9
ENDBRANCH   1   7
BRANCH   4  16
ATOM     16  N   UNL     1      -4.046   2.636   3.059  1.00  0.00     0.066 N 
ATOM     17  O   UNL     1      -5.202   2.154   2.994  1.00  0.00    -0.258 OA
ATOM     18  O   UNL     1      -3.114   2.058   3.666  1.00  0.00    -0.258 OA
ENDBRANCH   4  16
BRANCH   5  19
ATOM     19  O   UNL     1      -1.686   5.304  -0.225  1.00  0.00    -0.504 OA
ATOM     20  H   UNL     1      -0.987   4.642  -0.099  1.00  0.00     0.293 HD
ENDBRANCH   5  19
BRANCH   6  21
ATOM     21  O   UNL     1      -2.159   2.866   0.980  1.00  0.00    -0.500 OA
ATOM     22  H   UNL     1      -2.571   2.508   0.178  1.00  0.00     0.294 HD
ENDBRANCH   6  21
TORSDOF 5
ENDMDL
MODEL 6
REMARK VINA RESULT:    -4.431      3.870      7.130
REMARK INTER + INTRA:          -6.213
REMARK INTER:                  -5.517
REMARK INTRA:                  -0.697
REMARK UNBOUND:                -0.746
REMARK SMILES Cc1ccc(C(=O)c2cc(O)c(O)c([N+](=O)[O-])c2)cc1
REMARK SMILES IDX 8 1 18 2 9 3 14 4 10 5 12 6 6 7 7 8 5 9 4 10 19 11 3 12
REMARK SMILES IDX 20 13 2 14 1 15 15 16 17 17 16 18 11 19 13 21
REMARK H PARENT 11 20 13 22
ROOT
ATOM      1  C   UNL     1      -6.208   9.020   1.563  1.00  0.00     0.033 A 
ATOM      2  C   UNL     1      -6.857   9.803   2.490  1.00  0.00     0.102 A 
ATOM      3  C   UNL     1      -6.210   9.301   0.217  1.00  0.00     0.063 A 
ATOM      4  C   UNL     1      -7.546  10.931   2.045  1.00  0.00     0.315 A 
ATOM      5  C   UNL     1      -6.899  10.430  -0.228  1.00  0.00     0.165 A 
ATOM      6  C   UNL     1      -7.567  11.245   0.686  1.00  0.00     0.237 A 
ENDROOT
BRANCH   1   7
ATOM      7  C   UNL     1      -5.470   7.811   2.039  1.00  0.00     0.193 C 
ATOM      8  O   UNL     1      -5.773   7.364   3.155  1.00  0.00    -0.289 OA
BRANCH   7   9
ATOM      9  C   UNL     1      -4.436   7.166   1.246  1.00  0.00     0.023 A 
ATOM     10  C   UNL     1      -4.759   6.083   0.428  1.00  0.00     0.012 A 
ATOM     11  C   UNL     1      -3.123   7.631   1.302  1.00  0.00     0.012 A 
ATOM     12  C   UNL     1      -3.767   5.464  -0.333  1.00  0.00     0.004 A 
ATOM     13  C   UNL     1      -2.130   7.013   0.540  1.00  0.00     0.004 A 
ATOM     14  C   UNL     1      -2.452   5.929  -0.277  1.00  0.00    -0.051 A 
ATOM     15  C   UNL     1      -1.392   5.267  -1.089  1.00  0.00     0.044 C 
ENDBRANCH   7   9
ENDBRANCH   1   7
BRANCH   4  16
ATOM     16  N   UNL     1      -8.221  11.750   2.991  1.00  0.00     0.066 N 
ATOM     17  O   UNL     1      -9.007  12.635   2.576  1.00  0.00    -0.258 OA
ATOM     18  O   UNL     1      -8.011  11.563   4.213  1.00  0.00    -0.258 OA
ENDBRANCH   4  16
BRANCH   5  19
ATOM     19  O   UNL     1      -6.911  10.724  -1.559  1.00  0.00    -0.504 OA
ATOM     20  H   UNL     1      -7.686  11.273  -1.763  1.00  0.00     0.293 HD
ENDBRANCH   5  19
BRANCH   6  21
ATOM     21  O   UNL     1      -8.237  12.346   0.239  1.00  0.00    -0.500 OA
ATOM     22  H   UNL     1      -8.924  12.077  -0.390  1.00  0.00     0.294 HD
ENDBRANCH   6  21
TORSDOF 5
ENDMDL
MODEL 7
REMARK VINA RESULT:    -4.427      3.635      6.544
REMARK INTER + INTRA:          -6.209
REMARK INTER:                  -5.285
REMARK INTRA:                  -0.924
REMARK UNBOUND:                -0.746
REMARK SMILES Cc1ccc(C(=O)c2cc(O)c(O)c([N+](=O)[O-])c2)cc1
REMARK SMILES IDX 8 1 18 2 9 3 14 4 10 5 12 6 6 7 7 8 5 9 4 10 19 11 3 12
REMARK SMILES IDX 20 13 2 14 1 15 15 16 17 17 16 18 11 19 13 21
REMARK H PARENT 11 20 13 22
ROOT
ATOM      1  C   UNL     1      -5.342   9.055   1.395  1.00  0.00     0.033 A 
ATOM      2  C   UNL     1      -5.921   9.319   2.614  1.00  0.00     0.102 A 
ATOM      3  C   UNL     1      -5.735   9.675   0.232  1.00  0.00     0.063 A 
ATOM      4  C   UNL     1      -6.951  10.257   2.674  1.00  0.00     0.315 A 
ATOM      5  C   UNL     1      -6.766  10.613   0.292  1.00  0.00     0.165 A 
ATOM      6  C   UNL     1      -7.374  10.905   1.514  1.00  0.00     0.237 A 
ENDROOT
BRANCH   1   7
ATOM      7  C   UNL     1      -4.238   8.050   1.330  1.00  0.00     0.193 C 
ATOM      8  O   UNL     1      -3.153   8.426   0.862  1.00  0.00    -0.289 OA
BRANCH   7   9
ATOM      9  C   UNL     1      -4.403   6.681   1.790  1.00  0.00     0.023 A 
ATOM     10  C   UNL     1      -5.565   5.975   1.477  1.00  0.00     0.012 A 
ATOM     11  C   UNL     1      -3.399   6.072   2.543  1.00  0.00     0.012 A 
ATOM     12  C   UNL     1      -5.723   4.661   1.918  1.00  0.00     0.004 A 
ATOM     13  C   UNL     1      -3.556   4.758   2.984  1.00  0.00     0.004 A 
ATOM     14  C   UNL     1      -4.718   4.052   2.672  1.00  0.00    -0.051 A 
ATOM     15  C   UNL     1      -4.888   2.648   3.144  1.00  0.00     0.044 C 
ENDBRANCH   7   9
ENDBRANCH   1   7
BRANCH   4  16
ATOM     16  N   UNL     1      -7.559  10.541   3.928  1.00  0.00     0.066 N 
ATOM     17  O   UNL     1      -8.016  11.691   4.134  1.00  0.00    -0.258 OA
ATOM     18  O   UNL     1      -7.621   9.633   4.790  1.00  0.00    -0.258 OA
ENDBRANCH   4  16
BRANCH   5  19
ATOM     19  O   UNL     1      -7.168  11.238  -0.850  1.00  0.00    -0.504 OA
ATOM     20  H   UNL     1      -8.053  10.924  -1.099  1.00  0.00     0.293 HD
ENDBRANCH   5  19
BRANCH   6  21
ATOM     21  O   UNL     1      -8.381  11.824   1.560  1.00  0.00    -0.500 OA
ATOM     22  H   UNL     1      -8.894  11.705   2.374  1.00  0.00     0.294 HD
ENDBRANCH   6  21
TORSDOF 5
ENDMDL
MODEL 8
REMARK VINA RESULT:    -4.399      3.562      7.037
REMARK INTER + INTRA:          -6.174
REMARK INTER:                  -5.305
REMARK INTRA:                  -0.869
REMARK UNBOUND:                -0.746
REMARK SMILES Cc1ccc(C(=O)c2cc(O)c(O)c([N+](=O)[O-])c2)cc1
REMARK SMILES IDX 8 1 18 2 9 3 14 4 10 5 12 6 6 7 7 8 5 9 4 10 19 11 3 12
REMARK SMILES IDX 20 13 2 14 1 15 15 16 17 17 16 18 11 19 13 21
REMARK H PARENT 11 20 13 22
ROOT
ATOM      1  C   UNL     1      -6.651   8.023   2.066  1.00  0.00     0.033 A 
ATOM      2  C   UNL     1      -6.853   8.979   1.097  1.00  0.00     0.102 A 
ATOM      3  C   UNL     1      -6.831   8.269   3.406  1.00  0.00     0.063 A 
ATOM      4  C   UNL     1      -7.259  10.253   1.493  1.00  0.00     0.315 A 
ATOM      5  C   UNL     1      -7.237   9.544   3.802  1.00  0.00     0.165 A 
ATOM      6  C   UNL     1      -7.451  10.536   2.845  1.00  0.00     0.237 A 
ENDROOT
BRANCH   1   7
ATOM      7  C   UNL     1      -6.216   6.658   1.643  1.00  0.00     0.193 C 
ATOM      8  O   UNL     1      -6.996   5.718   1.862  1.00  0.00    -0.289 OA
BRANCH   7   9
ATOM      9  C   UNL     1      -4.937   6.412   0.997  1.00  0.00     0.023 A 
ATOM     10  C   UNL     1      -3.820   7.169   1.353  1.00  0.00     0.012 A 
ATOM     11  C   UNL     1      -4.825   5.420   0.024  1.00  0.00     0.012 A 
ATOM     12  C   UNL     1      -2.592   6.933   0.734  1.00  0.00     0.004 A 
ATOM     13  C   UNL     1      -3.598   5.183  -0.596  1.00  0.00     0.004 A 
ATOM     14  C   UNL     1      -2.481   5.940  -0.241  1.00  0.00    -0.051 A 
ATOM     15  C   UNL     1      -1.169   5.689  -0.903  1.00  0.00     0.044 C 
ENDBRANCH   7   9
ENDBRANCH   1   7
BRANCH   4  16
ATOM     16  N   UNL     1      -7.471  11.252   0.503  1.00  0.00     0.066 N 
ATOM     17  O   UNL     1      -8.297  12.168   0.734  1.00  0.00    -0.258 OA
ATOM     18  O   UNL     1      -6.827  11.188  -0.570  1.00  0.00    -0.258 OA
ENDBRANCH   4  16
BRANCH   5  19
ATOM     19  O   UNL     1      -7.421   9.806   5.126  1.00  0.00    -0.504 OA
ATOM     20  H   UNL     1      -7.728   9.002   5.577  1.00  0.00     0.293 HD
ENDBRANCH   5  19
BRANCH   6  21
ATOM     21  O   UNL     1      -7.848  11.779   3.244  1.00  0.00    -0.500 OA
ATOM     22  H   UNL     1      -8.596  11.702   3.856  1.00  0.00     0.294 HD
ENDBRANCH   6  21
TORSDOF 5
ENDMDL
MODEL 9
REMARK VINA RESULT:    -4.398      1.259      2.928
REMARK INTER + INTRA:          -6.172
REMARK INTER:                  -5.508
REMARK INTRA:                  -0.664
REMARK UNBOUND:                -0.746
REMARK SMILES Cc1ccc(C(=O)c2cc(O)c(O)c([N+](=O)[O-])c2)cc1
REMARK SMILES IDX 8 1 18 2 9 3 14 4 10 5 12 6 6 7 7 8 5 9 4 10 19 11 3 12
REMARK SMILES IDX 20 13 2 14 1 15 15 16 17 17 16 18 11 19 13 21
REMARK H PARENT 11 20 13 22
ROOT
ATOM      1  C   UNL     1      -4.676   6.365   0.638  1.00  0.00     0.033 A 
ATOM      2  C   UNL     1      -3.546   6.211  -0.133  1.00  0.00     0.102 A 
ATOM      3  C   UNL     1      -5.106   5.412   1.529  1.00  0.00     0.063 A 
ATOM      4  C   UNL     1      -2.805   5.037  -0.003  1.00  0.00     0.315 A 
ATOM      5  C   UNL     1      -4.366   4.236   1.658  1.00  0.00     0.165 A 
ATOM      6  C   UNL     1      -3.214   4.049   0.892  1.00  0.00     0.237 A 
ENDROOT
BRANCH   1   7
ATOM      7  C   UNL     1      -5.470   7.623   0.499  1.00  0.00     0.193 C 
ATOM      8  O   UNL     1      -5.690   8.033  -0.651  1.00  0.00    -0.289 OA
BRANCH   7   9
ATOM      9  C   UNL     1      -5.976   8.357   1.648  1.00  0.00     0.023 A 
ATOM     10  C   UNL     1      -7.164   7.959   2.261  1.00  0.00     0.012 A 
ATOM     11  C   UNL     1      -5.273   9.457   2.138  1.00  0.00     0.012 A 
ATOM     12  C   UNL     1      -7.649   8.663   3.363  1.00  0.00     0.004 A 
ATOM     13  C   UNL     1      -5.757  10.161   3.241  1.00  0.00     0.004 A 
ATOM     14  C   UNL     1      -6.946   9.764   3.853  1.00  0.00    -0.051 A 
ATOM     15  C   UNL     1      -7.466  10.516   5.031  1.00  0.00     0.044 C 
ENDBRANCH   7   9
ENDBRANCH   1   7
BRANCH   4  16
ATOM     16  N   UNL     1      -1.635   4.864  -0.792  1.00  0.00     0.066 N 
ATOM     17  O   UNL     1      -0.703   5.696  -0.684  1.00  0.00    -0.258 OA
ATOM     18  O   UNL     1      -1.570   3.885  -1.572  1.00  0.00    -0.258 OA
ENDBRANCH   4  16
BRANCH   5  19
ATOM     19  O   UNL     1      -4.777   3.280   2.537  1.00  0.00    -0.504 OA
ATOM     20  H   UNL     1      -5.297   2.607   2.067  1.00  0.00     0.293 HD
ENDBRANCH   5  19
BRANCH   6  21
ATOM     21  O   UNL     1      -2.498   2.896   1.028  1.00  0.00    -0.500 OA
ATOM     22  H   UNL     1      -2.513   2.402   0.193  1.00  0.00     0.294 HD
ENDBRANCH   6  21
TORSDOF 5
ENDMDL
