MODEL 1
REMARK VINA RESULT:    -5.156      0.000      0.000
REMARK INTER + INTRA:          -7.065
REMARK INTER:                  -6.362
REMARK INTRA:                  -0.703
REMARK UNBOUND:                -0.703
REMARK SMILES Cc1ccc(C(=O)c2cc(O)c(O)c([N+](=O)[O-])c2)cc1
REMARK SMILES IDX 8 1 18 2 9 3 14 4 10 5 12 6 6 7 7 8 5 9 4 10 19 11 3 12
REMARK SMILES IDX 20 13 2 14 1 15 15 16 17 17 16 18 11 19 13 21
REMARK H PARENT 11 20 13 22
ROOT
ATOM      1  C   UNL     1      -1.248  -7.850   3.265  1.00  0.00     0.033 A 
ATOM      2  C   UNL     1      -2.387  -7.688   2.511  1.00  0.00     0.102 A 
ATOM      3  C   UNL     1      -0.321  -6.851   3.443  1.00  0.00     0.063 A 
ATOM      4  C   UNL     1      -2.612  -6.453   1.901  1.00  0.00     0.315 A 
ATOM      5  C   UNL     1      -0.546  -5.617   2.833  1.00  0.00     0.165 A 
ATOM      6  C   UNL     1      -1.692  -5.418   2.062  1.00  0.00     0.237 A 
ENDROOT
BRANCH   1   7
ATOM      7  C   UNL     1      -1.007  -9.172   3.919  1.00  0.00     0.193 C 
ATOM      8  O   UNL     1      -0.393  -9.170   4.997  1.00  0.00    -0.289 OA
BRANCH   7   9
ATOM      9  C   UNL     1      -1.462 -10.424   3.337  1.00  0.00     0.023 A 
ATOM     10  C   UNL     1      -0.572 -11.226   2.622  1.00  0.00     0.012 A 
ATOM     11  C   UNL     1      -2.789 -10.825   3.493  1.00  0.00     0.012 A 
ATOM     12  C   UNL     1      -1.009 -12.427   2.064  1.00  0.00     0.004 A 
ATOM     13  C   UNL     1      -3.227 -12.026   2.935  1.00  0.00     0.004 A 
ATOM     14  C   UNL     1      -2.336 -12.828   2.220  1.00  0.00    -0.051 A 
ATOM     15  C   UNL     1      -2.803 -14.111   1.622  1.00  0.00     0.044 C 
ENDBRANCH   7   9
ENDBRANCH   1   7
BRANCH   4  16
ATOM     16  N   UNL     1      -3.785  -6.270   1.119  1.00  0.00     0.066 N 
ATOM     17  O   UNL     1      -4.819  -6.915   1.417  1.00  0.00    -0.258 OA
ATOM     18  O   UNL     1      -3.752  -5.468   0.156  1.00  0.00    -0.258 OA
ENDBRANCH   4  16
BRANCH   5  19
ATOM     19  O   UNL     1       0.361  -4.614   2.999  1.00  0.00    -0.504 OA
ATOM     20  H   UNL     1       0.899  -4.789   3.789  1.00  0.00     0.293 HD
ENDBRANCH   5  19
BRANCH   6  21
ATOM     21  O   UNL     1      -1.901  -4.206   1.470  1.00  0.00    -0.500 OA
ATOM     22  H   UNL     1      -2.796  -4.175   1.098  1.00  0.00     0.294 HD
ENDBRANCH   6  21
TORSDOF 5
ENDMDL
MODEL 2
REMARK VINA RESULT:    -5.146      1.990      3.543
REMARK INTER + INTRA:          -7.052
REMARK INTER:                  -6.330
REMARK INTRA:                  -0.722
REMARK UNBOUND:                -0.703
REMARK SMILES Cc1ccc(C(=O)c2cc(O)c(O)c([N+](=O)[O-])c2)cc1
REMARK SMILES IDX 8 1 18 2 9 3 14 4 10 5 12 6 6 7 7 8 5 9 4 10 19 11 3 12
REMARK SMILES IDX 20 13 2 14 1 15 15 16 17 17 16 18 11 19 13 21
REMARK H PARENT 11 20 13 22
ROOT
ATOM      1  C   UNL     1      -1.938  -8.278   1.678  1.00  0.00     0.033 A 
ATOM      2  C   UNL     1      -0.833  -7.685   2.243  1.00  0.00     0.102 A 
ATOM      3  C   UNL     1      -2.961  -7.559   1.107  1.00  0.00     0.063 A 
ATOM      4  C   UNL     1      -0.746  -6.293   2.234  1.00  0.00     0.315 A 
ATOM      5  C   UNL     1      -2.874  -6.167   1.099  1.00  0.00     0.165 A 
ATOM      6  C   UNL     1      -1.766  -5.533   1.663  1.00  0.00     0.237 A 
ENDROOT
BRANCH   1   7
ATOM      7  C   UNL     1      -2.032  -9.769   1.686  1.00  0.00     0.193 C 
ATOM      8  O   UNL     1      -2.610 -10.309   0.731  1.00  0.00    -0.289 OA
BRANCH   7   9
ATOM      9  C   UNL     1      -1.476 -10.579   2.759  1.00  0.00     0.023 A 
ATOM     10  C   UNL     1      -2.303 -11.049   3.779  1.00  0.00     0.012 A 
ATOM     11  C   UNL     1      -0.116 -10.887   2.767  1.00  0.00     0.012 A 
ATOM     12  C   UNL     1      -1.770 -11.826   4.807  1.00  0.00     0.004 A 
ATOM     13  C   UNL     1       0.419 -11.664   3.795  1.00  0.00     0.004 A 
ATOM     14  C   UNL     1      -0.409 -12.134   4.815  1.00  0.00    -0.051 A 
ATOM     15  C   UNL     1       0.161 -12.963   5.915  1.00  0.00     0.044 C 
ENDBRANCH   7   9
ENDBRANCH   1   7
BRANCH   4  16
ATOM     16  N   UNL     1       0.391  -5.666   2.814  1.00  0.00     0.066 N 
ATOM     17  O   UNL     1       1.492  -6.268   2.795  1.00  0.00    -0.258 OA
ATOM     18  O   UNL     1       0.261  -4.530   3.327  1.00  0.00    -0.258 OA
ENDBRANCH   4  16
BRANCH   5  19
ATOM     19  O   UNL     1      -3.879  -5.437   0.537  1.00  0.00    -0.504 OA
ATOM     20  H   UNL     1      -4.617  -5.363   1.163  1.00  0.00     0.293 HD
ENDBRANCH   5  19
BRANCH   6  21
ATOM     21  O   UNL     1      -1.692  -4.171   1.649  1.00  0.00    -0.500 OA
ATOM     22  H   UNL     1      -2.062  -3.833   0.818  1.00  0.00     0.294 HD
ENDBRANCH   6  21
TORSDOF 5
ENDMDL
MODEL 3
REMARK VINA RESULT:    -4.351      3.617      6.553
REMARK INTER + INTRA:          -6.072
REMARK INTER:                  -5.119
REMARK INTRA:                  -0.953
REMARK UNBOUND:                -0.703
REMARK SMILES Cc1ccc(C(=O)c2cc(O)c(O)c([N+](=O)[O-])c2)cc1
REMARK SMILES IDX 8 1 18 2 9 3 14 4 10 5 12 6 6 7 7 8 5 9 4 10 19 11 3 12
REMARK SMILES IDX 20 13 2 14 1 15 15 16 17 17 16 18 11 19 13 21
REMARK H PARENT 11 20 13 22
ROOT
ATOM      1  C   UNL     1      -0.744 -11.233   3.087  1.00  0.00     0.033 A 
ATOM      2  C   UNL     1      -1.524 -12.044   2.296  1.00  0.00     0.102 A 
ATOM      3  C   UNL     1      -0.174 -11.662   4.262  1.00  0.00     0.063 A 
ATOM      4  C   UNL     1      -1.746 -13.360   2.703  1.00  0.00     0.315 A 
ATOM      5  C   UNL     1      -0.397 -12.978   4.670  1.00  0.00     0.165 A 
ATOM      6  C   UNL     1      -1.183 -13.827   3.890  1.00  0.00     0.237 A 
ENDROOT
BRANCH   1   7
ATOM      7  C   UNL     1      -0.506  -9.824   2.651  1.00  0.00     0.193 C 
ATOM      8  O   UNL     1       0.670  -9.434   2.604  1.00  0.00    -0.289 OA
BRANCH   7   9
ATOM      9  C   UNL     1      -1.591  -8.927   2.289  1.00  0.00     0.023 A 
ATOM     10  C   UNL     1      -2.676  -8.761   3.150  1.00  0.00     0.012 A 
ATOM     11  C   UNL     1      -1.547  -8.230   1.081  1.00  0.00     0.012 A 
ATOM     12  C   UNL     1      -3.717  -7.900   2.803  1.00  0.00     0.004 A 
ATOM     13  C   UNL     1      -2.588  -7.368   0.733  1.00  0.00     0.004 A 
ATOM     14  C   UNL     1      -3.673  -7.203   1.594  1.00  0.00    -0.051 A 
ATOM     15  C   UNL     1      -4.786  -6.283   1.223  1.00  0.00     0.044 C 
ENDBRANCH   7   9
ENDBRANCH   1   7
BRANCH   4  16
ATOM     16  N   UNL     1      -2.550 -14.210   1.895  1.00  0.00     0.066 N 
ATOM     17  O   UNL     1      -3.475 -13.703   1.215  1.00  0.00    -0.258 OA
ATOM     18  O   UNL     1      -2.311 -15.440   1.886  1.00  0.00    -0.258 OA
ENDBRANCH   4  16
BRANCH   5  19
ATOM     19  O   UNL     1       0.160 -13.420   5.832  1.00  0.00    -0.504 OA
ATOM     20  H   UNL     1      -0.531 -13.795   6.403  1.00  0.00     0.293 HD
ENDBRANCH   5  19
BRANCH   6  21
ATOM     21  O   UNL     1      -1.393 -15.112   4.299  1.00  0.00    -0.500 OA
ATOM     22  H   UNL     1      -0.805 -15.317   5.043  1.00  0.00     0.294 HD
ENDBRANCH   6  21
TORSDOF 5
ENDMDL
MODEL 4
REMARK VINA RESULT:    -4.337      3.499      7.119
REMARK INTER + INTRA:          -6.054
REMARK INTER:                  -5.100
REMARK INTRA:                  -0.954
REMARK UNBOUND:                -0.703
REMARK SMILES Cc1ccc(C(=O)c2cc(O)c(O)c([N+](=O)[O-])c2)cc1
REMARK SMILES IDX 8 1 18 2 9 3 14 4 10 5 12 6 6 7 7 8 5 9 4 10 19 11 3 12
REMARK SMILES IDX 20 13 2 14 1 15 15 16 17 17 16 18 11 19 13 21
REMARK H PARENT 11 20 13 22
ROOT
ATOM      1  C   UNL     1      -2.117 -11.241   3.353  1.00  0.00     0.033 A 
ATOM      2  C   UNL     1      -1.284 -11.534   4.408  1.00  0.00     0.102 A 
ATOM      3  C   UNL     1      -2.615 -12.202   2.506  1.00  0.00     0.063 A 
ATOM      4  C   UNL     1      -0.929 -12.865   4.628  1.00  0.00     0.315 A 
ATOM      5  C   UNL     1      -2.259 -13.533   2.725  1.00  0.00     0.165 A 
ATOM      6  C   UNL     1      -1.417 -13.865   3.787  1.00  0.00     0.237 A 
ENDROOT
BRANCH   1   7
ATOM      7  C   UNL     1      -2.497  -9.815   3.118  1.00  0.00     0.193 C 
ATOM      8  O   UNL     1      -3.706  -9.559   3.007  1.00  0.00    -0.289 OA
BRANCH   7   9
ATOM      9  C   UNL     1      -1.511  -8.752   3.018  1.00  0.00     0.023 A 
ATOM     10  C   UNL     1      -0.422  -8.889   2.156  1.00  0.00     0.012 A 
ATOM     11  C   UNL     1      -1.653  -7.594   3.783  1.00  0.00     0.012 A 
ATOM     12  C   UNL     1       0.524  -7.868   2.060  1.00  0.00     0.004 A 
ATOM     13  C   UNL     1      -0.707  -6.573   3.687  1.00  0.00     0.004 A 
ATOM     14  C   UNL     1       0.382  -6.710   2.825  1.00  0.00    -0.051 A 
ATOM     15  C   UNL     1       1.394  -5.620   2.724  1.00  0.00     0.044 C 
ENDBRANCH   7   9
ENDBRANCH   1   7
BRANCH   4  16
ATOM     16  N   UNL     1      -0.069 -13.183   5.715  1.00  0.00     0.066 N 
ATOM     17  O   UNL     1      -0.199 -14.293   6.285  1.00  0.00    -0.258 OA
ATOM     18  O   UNL     1       0.793 -12.346   6.070  1.00  0.00    -0.258 OA
ENDBRANCH   4  16
BRANCH   5  19
ATOM     19  O   UNL     1      -2.743 -14.500   1.896  1.00  0.00    -0.504 OA
ATOM     20  H   UNL     1      -2.951 -15.297   2.411  1.00  0.00     0.293 HD
ENDBRANCH   5  19
BRANCH   6  21
ATOM     21  O   UNL     1      -1.077 -15.170   3.992  1.00  0.00    -0.500 OA
ATOM     22  H   UNL     1      -0.438 -15.231   4.719  1.00  0.00     0.294 HD
ENDBRANCH   6  21
TORSDOF 5
ENDMDL
MODEL 5
REMARK VINA RESULT:    -4.297      2.329      4.054
REMARK INTER + INTRA:          -6.005
REMARK INTER:                  -4.999
REMARK INTRA:                  -1.007
REMARK UNBOUND:                -0.703
REMARK SMILES Cc1ccc(C(=O)c2cc(O)c(O)c([N+](=O)[O-])c2)cc1
REMARK SMILES IDX 8 1 18 2 9 3 14 4 10 5 12 6 6 7 7 8 5 9 4 10 19 11 3 12
REMARK SMILES IDX 20 13 2 14 1 15 15 16 17 17 16 18 11 19 13 21
REMARK H PARENT 11 20 13 22
ROOT
ATOM      1  C   UNL     1      -2.420 -11.072   3.352  1.00  0.00     0.033 A 
ATOM      2  C   UNL     1      -1.828  -9.957   2.805  1.00  0.00     0.102 A 
ATOM      3  C   UNL     1      -3.666 -11.048   3.931  1.00  0.00     0.063 A 
ATOM      4  C   UNL     1      -2.524  -8.748   2.840  1.00  0.00     0.315 A 
ATOM      5  C   UNL     1      -4.362  -9.839   3.967  1.00  0.00     0.165 A 
ATOM      6  C   UNL     1      -3.791  -8.689   3.421  1.00  0.00     0.237 A 
ENDROOT
BRANCH   1   7
ATOM      7  C   UNL     1      -1.675 -12.367   3.315  1.00  0.00     0.193 C 
ATOM      8  O   UNL     1      -0.718 -12.495   4.093  1.00  0.00    -0.289 OA
BRANCH   7   9
ATOM      9  C   UNL     1      -2.036 -13.449   2.413  1.00  0.00     0.023 A 
ATOM     10  C   UNL     1      -2.391 -14.696   2.927  1.00  0.00     0.012 A 
ATOM     11  C   UNL     1      -2.028 -13.239   1.034  1.00  0.00     0.012 A 
ATOM     12  C   UNL     1      -2.737 -15.734   2.062  1.00  0.00     0.004 A 
ATOM     13  C   UNL     1      -2.375 -14.277   0.168  1.00  0.00     0.004 A 
ATOM     14  C   UNL     1      -2.730 -15.525   0.682  1.00  0.00    -0.051 A 
ATOM     15  C   UNL     1      -3.099 -16.634  -0.243  1.00  0.00     0.044 C 
ENDBRANCH   7   9
ENDBRANCH   1   7
BRANCH   4  16
ATOM     16  N   UNL     1      -1.926  -7.587   2.279  1.00  0.00     0.066 N 
ATOM     17  O   UNL     1      -1.360  -7.676   1.163  1.00  0.00    -0.258 OA
ATOM     18  O   UNL     1      -1.982  -6.509   2.915  1.00  0.00    -0.258 OA
ENDBRANCH   4  16
BRANCH   5  19
ATOM     19  O   UNL     1      -5.599  -9.796   4.537  1.00  0.00    -0.504 OA
ATOM     20  H   UNL     1      -5.708 -10.554   5.135  1.00  0.00     0.293 HD
ENDBRANCH   5  19
BRANCH   6  21
ATOM     21  O   UNL     1      -4.481  -7.513   3.461  1.00  0.00    -0.500 OA
ATOM     22  H   UNL     1      -4.269  -7.038   4.279  1.00  0.00     0.294 HD
ENDBRANCH   6  21
TORSDOF 5
ENDMDL
MODEL 6
REMARK VINA RESULT:    -4.293      3.738      6.969
REMARK INTER + INTRA:          -6.001
REMARK INTER:                  -5.061
REMARK INTRA:                  -0.940
REMARK UNBOUND:                -0.703
REMARK SMILES Cc1ccc(C(=O)c2cc(O)c(O)c([N+](=O)[O-])c2)cc1
REMARK SMILES IDX 8 1 18 2 9 3 14 4 10 5 12 6 6 7 7 8 5 9 4 10 19 11 3 12
REMARK SMILES IDX 20 13 2 14 1 15 15 16 17 17 16 18 11 19 13 21
REMARK H PARENT 11 20 13 22
ROOT
ATOM      1  C   UNL     1      -0.839 -11.288   3.057  1.00  0.00     0.033 A 
ATOM      2  C   UNL     1      -0.376 -11.749   4.268  1.00  0.00     0.102 A 
ATOM      3  C   UNL     1      -1.535 -12.079   2.174  1.00  0.00     0.063 A 
ATOM      4  C   UNL     1      -0.624 -13.077   4.615  1.00  0.00     0.315 A 
ATOM      5  C   UNL     1      -1.783 -13.407   2.521  1.00  0.00     0.165 A 
ATOM      6  C   UNL     1      -1.328 -13.906   3.742  1.00  0.00     0.237 A 
ENDROOT
BRANCH   1   7
ATOM      7  C   UNL     1      -0.573  -9.865   2.685  1.00  0.00     0.193 C 
ATOM      8  O   UNL     1       0.606  -9.483   2.706  1.00  0.00    -0.289 OA
BRANCH   7   9
ATOM      9  C   UNL     1      -1.636  -8.946   2.310  1.00  0.00     0.023 A 
ATOM     10  C   UNL     1      -1.565  -8.256   1.099  1.00  0.00     0.012 A 
ATOM     11  C   UNL     1      -2.725  -8.754   3.159  1.00  0.00     0.012 A 
ATOM     12  C   UNL     1      -2.584  -7.375   0.739  1.00  0.00     0.004 A 
ATOM     13  C   UNL     1      -3.745  -7.873   2.799  1.00  0.00     0.004 A 
ATOM     14  C   UNL     1      -3.675  -7.183   1.589  1.00  0.00    -0.051 A 
ATOM     15  C   UNL     1      -4.763  -6.239   1.204  1.00  0.00     0.044 C 
ENDBRANCH   7   9
ENDBRANCH   1   7
BRANCH   4  16
ATOM     16  N   UNL     1      -0.152 -13.567   5.863  1.00  0.00     0.066 N 
ATOM     17  O   UNL     1       0.038 -14.800   5.997  1.00  0.00    -0.258 OA
ATOM     18  O   UNL     1       0.062 -12.754   6.792  1.00  0.00    -0.258 OA
ENDBRANCH   4  16
BRANCH   5  19
ATOM     19  O   UNL     1      -2.472 -14.206   1.659  1.00  0.00    -0.504 OA
ATOM     20  H   UNL     1      -2.986 -13.655   1.045  1.00  0.00     0.293 HD
ENDBRANCH   5  19
BRANCH   6  21
ATOM     21  O   UNL     1      -1.577 -15.207   4.070  1.00  0.00    -0.500 OA
ATOM     22  H   UNL     1      -2.035 -15.246   4.925  1.00  0.00     0.294 HD
ENDBRANCH   6  21
TORSDOF 5
ENDMDL
MODEL 7
REMARK VINA RESULT:    -4.240      3.726      6.856
REMARK INTER + INTRA:          -5.934
REMARK INTER:                  -5.052
REMARK INTRA:                  -0.882
REMARK UNBOUND:                -0.703
REMARK SMILES Cc1ccc(C(=O)c2cc(O)c(O)c([N+](=O)[O-])c2)cc1
REMARK SMILES IDX 8 1 18 2 9 3 14 4 10 5 12 6 6 7 7 8 5 9 4 10 19 11 3 12
REMARK SMILES IDX 20 13 2 14 1 15 15 16 17 17 16 18 11 19 13 21
REMARK H PARENT 11 20 13 22
ROOT
ATOM      1  C   UNL     1      -1.948 -11.331   3.359  1.00  0.00     0.033 A 
ATOM      2  C   UNL     1      -2.371 -12.380   2.576  1.00  0.00     0.102 A 
ATOM      3  C   UNL     1      -1.165 -11.502   4.476  1.00  0.00     0.063 A 
ATOM      4  C   UNL     1      -1.986 -13.673   2.929  1.00  0.00     0.315 A 
ATOM      5  C   UNL     1      -0.781 -12.795   4.830  1.00  0.00     0.165 A 
ATOM      6  C   UNL     1      -1.192 -13.882   4.056  1.00  0.00     0.237 A 
ENDROOT
BRANCH   1   7
ATOM      7  C   UNL     1      -2.359  -9.945   2.981  1.00  0.00     0.193 C 
ATOM      8  O   UNL     1      -3.557  -9.760   2.716  1.00  0.00    -0.289 OA
BRANCH   7   9
ATOM      9  C   UNL     1      -1.415  -8.841   2.918  1.00  0.00     0.023 A 
ATOM     10  C   UNL     1      -0.329  -8.901   2.045  1.00  0.00     0.012 A 
ATOM     11  C   UNL     1      -1.595  -7.722   3.731  1.00  0.00     0.012 A 
ATOM     12  C   UNL     1       0.576  -7.842   1.985  1.00  0.00     0.004 A 
ATOM     13  C   UNL     1      -0.690  -6.662   3.671  1.00  0.00     0.004 A 
ATOM     14  C   UNL     1       0.397  -6.722   2.798  1.00  0.00    -0.051 A 
ATOM     15  C   UNL     1       1.365  -5.591   2.734  1.00  0.00     0.044 C 
ENDBRANCH   7   9
ENDBRANCH   1   7
BRANCH   4  16
ATOM     16  N   UNL     1      -2.415 -14.767   2.129  1.00  0.00     0.066 N 
ATOM     17  O   UNL     1      -2.824 -14.543   0.964  1.00  0.00    -0.258 OA
ATOM     18  O   UNL     1      -2.371 -15.924   2.610  1.00  0.00    -0.258 OA
ENDBRANCH   4  16
BRANCH   5  19
ATOM     19  O   UNL     1      -0.004 -12.984   5.934  1.00  0.00    -0.504 OA
ATOM     20  H   UNL     1       0.640 -12.260   6.005  1.00  0.00     0.293 HD
ENDBRANCH   5  19
BRANCH   6  21
ATOM     21  O   UNL     1      -0.810 -15.142   4.412  1.00  0.00    -0.500 OA
ATOM     22  H   UNL     1       0.159 -15.197   4.429  1.00  0.00     0.294 HD
ENDBRANCH   6  21
TORSDOF 5
ENDMDL
MODEL 8
REMARK VINA RESULT:    -4.236      1.954      2.565
REMARK INTER + INTRA:          -5.930
REMARK INTER:                  -5.286
REMARK INTRA:                  -0.644
REMARK UNBOUND:                -0.703
REMARK SMILES Cc1ccc(C(=O)c2cc(O)c(O)c([N+](=O)[O-])c2)cc1
REMARK SMILES IDX 8 1 18 2 9 3 14 4 10 5 12 6 6 7 7 8 5 9 4 10 19 11 3 12
REMARK SMILES IDX 20 13 2 14 1 15 15 16 17 17 16 18 11 19 13 21
REMARK H PARENT 11 20 13 22
ROOT
ATOM      1  C   UNL     1      -1.779  -8.777   1.948  1.00  0.00     0.033 A 
ATOM      2  C   UNL     1      -2.891  -8.073   1.547  1.00  0.00     0.102 A 
ATOM      3  C   UNL     1      -0.582  -8.173   2.252  1.00  0.00     0.063 A 
ATOM      4  C   UNL     1      -2.799  -6.685   1.444  1.00  0.00     0.315 A 
ATOM      5  C   UNL     1      -0.491  -6.785   2.149  1.00  0.00     0.165 A 
ATOM      6  C   UNL     1      -1.600  -6.040   1.745  1.00  0.00     0.237 A 
ENDROOT
BRANCH   1   7
ATOM      7  C   UNL     1      -1.877 -10.264   2.058  1.00  0.00     0.193 C 
ATOM      8  O   UNL     1      -2.472 -10.864   1.150  1.00  0.00    -0.289 OA
BRANCH   7   9
ATOM      9  C   UNL     1      -1.305 -11.003   3.172  1.00  0.00     0.023 A 
ATOM     10  C   UNL     1      -2.118 -11.408   4.231  1.00  0.00     0.012 A 
ATOM     11  C   UNL     1       0.056 -11.307   3.183  1.00  0.00     0.012 A 
ATOM     12  C   UNL     1      -1.570 -12.117   5.299  1.00  0.00     0.004 A 
ATOM     13  C   UNL     1       0.606 -12.016   4.252  1.00  0.00     0.004 A 
ATOM     14  C   UNL     1      -0.208 -12.421   5.310  1.00  0.00    -0.051 A 
ATOM     15  C   UNL     1       0.378 -13.178   6.453  1.00  0.00     0.044 C 
ENDBRANCH   7   9
ENDBRANCH   1   7
BRANCH   4  16
ATOM     16  N   UNL     1      -3.940  -5.943   1.031  1.00  0.00     0.066 N 
ATOM     17  O   UNL     1      -4.998  -6.035   1.700  1.00  0.00    -0.258 OA
ATOM     18  O   UNL     1      -3.855  -5.219   0.012  1.00  0.00    -0.258 OA
ENDBRANCH   4  16
BRANCH   5  19
ATOM     19  O   UNL     1       0.688  -6.169   2.446  1.00  0.00    -0.504 OA
ATOM     20  H   UNL     1       0.656  -5.828   3.356  1.00  0.00     0.293 HD
ENDBRANCH   5  19
BRANCH   6  21
ATOM     21  O   UNL     1      -1.498  -4.683   1.649  1.00  0.00    -0.500 OA
ATOM     22  H   UNL     1      -1.848  -4.390   0.793  1.00  0.00     0.294 HD
ENDBRANCH   6  21
TORSDOF 5
ENDMDL
MODEL 9
REMARK VINA RESULT:    -4.224      1.267      2.941
REMARK INTER + INTRA:          -5.915
REMARK INTER:                  -5.262
REMARK INTRA:                  -0.653
REMARK UNBOUND:                -0.703
REMARK SMILES Cc1ccc(C(=O)c2cc(O)c(O)c([N+](=O)[O-])c2)cc1
REMARK SMILES IDX 8 1 18 2 9 3 14 4 10 5 12 6 6 7 7 8 5 9 4 10 19 11 3 12
REMARK SMILES IDX 20 13 2 14 1 15 15 16 17 17 16 18 11 19 13 21
REMARK H PARENT 11 20 13 22
ROOT
ATOM      1  C   UNL     1      -1.265  -8.283   3.280  1.00  0.00     0.033 A 
ATOM      2  C   UNL     1      -0.220  -7.390   3.333  1.00  0.00     0.102 A 
ATOM      3  C   UNL     1      -2.473  -7.985   2.696  1.00  0.00     0.063 A 
ATOM      4  C   UNL     1      -0.393  -6.127   2.766  1.00  0.00     0.315 A 
ATOM      5  C   UNL     1      -2.647  -6.722   2.130  1.00  0.00     0.165 A 
ATOM      6  C   UNL     1      -1.606  -5.793   2.165  1.00  0.00     0.237 A 
ENDROOT
BRANCH   1   7
ATOM      7  C   UNL     1      -1.079  -9.636   3.887  1.00  0.00     0.193 C 
ATOM      8  O   UNL     1      -0.494  -9.695   4.978  1.00  0.00    -0.289 OA
BRANCH   7   9
ATOM      9  C   UNL     1      -1.557 -10.850   3.245  1.00  0.00     0.023 A 
ATOM     10  C   UNL     1      -2.891 -11.233   3.381  1.00  0.00     0.012 A 
ATOM     11  C   UNL     1      -0.681 -11.632   2.493  1.00  0.00     0.012 A 
ATOM     12  C   UNL     1      -3.349 -12.397   2.765  1.00  0.00     0.004 A 
ATOM     13  C   UNL     1      -1.138 -12.798   1.876  1.00  0.00     0.004 A 
ATOM     14  C   UNL     1      -2.473 -13.180   2.012  1.00  0.00    -0.051 A 
ATOM     15  C   UNL     1      -2.962 -14.426   1.355  1.00  0.00     0.044 C 
ENDBRANCH   7   9
ENDBRANCH   1   7
BRANCH   4  16
ATOM     16  N   UNL     1       0.678  -5.193   2.812  1.00  0.00     0.066 N 
ATOM     17  O   UNL     1       1.768  -5.494   2.267  1.00  0.00    -0.258 OA
ATOM     18  O   UNL     1       0.503  -4.098   3.395  1.00  0.00    -0.258 OA
ENDBRANCH   4  16
BRANCH   5  19
ATOM     19  O   UNL     1      -3.837  -6.409   1.546  1.00  0.00    -0.504 OA
ATOM     20  H   UNL     1      -4.425  -6.002   2.203  1.00  0.00     0.293 HD
ENDBRANCH   5  19
BRANCH   6  21
ATOM     21  O   UNL     1      -1.788  -4.560   1.608  1.00  0.00    -0.500 OA
ATOM     22  H   UNL     1      -0.953  -4.249   1.224  1.00  0.00     0.294 HD
ENDBRANCH   6  21
TORSDOF 5
ENDMDL
