MODEL 1
REMARK VINA RESULT:    -6.887      0.000      0.000
REMARK INTER + INTRA:          -8.646
REMARK INTER:                  -8.095
REMARK INTRA:                  -0.551
REMARK UNBOUND:                -0.551
REMARK SMILES O=C(O)c1cc(-c2ccc(F)cc2F)ccc1O
REMARK SMILES IDX 6 1 5 2 15 3 4 4 17 5 16 6 7 7 13 8 12 9 8 10 10 11 9 12
REMARK SMILES IDX 14 13 11 14 2 15 1 16 3 17 18 19
REMARK H PARENT 3 18 18 20
ROOT
ATOM      1  C   UNL     1      -1.588  -8.195   2.545  1.00  0.00    -0.014 A 
ATOM      2  C   UNL     1      -2.744  -7.698   1.944  1.00  0.00     0.028 A 
ATOM      3  C   UNL     1      -0.522  -7.339   2.822  1.00  0.00     0.013 A 
ATOM      4  C   UNL     1      -2.834  -6.345   1.617  1.00  0.00     0.102 A 
ATOM      5  C   UNL     1      -1.768  -5.489   1.894  1.00  0.00     0.130 A 
ATOM      6  C   UNL     1      -0.611  -5.986   2.496  1.00  0.00     0.048 A 
ENDROOT
BRANCH   1   7
ATOM      7  C   UNL     1      -1.494  -9.599   2.883  1.00  0.00     0.018 A 
ATOM      8  C   UNL     1      -2.577 -10.253   3.472  1.00  0.00     0.133 A 
ATOM      9  C   UNL     1      -2.481 -11.606   3.795  1.00  0.00     0.079 A 
ATOM     10  C   UNL     1      -0.317 -10.299   2.617  1.00  0.00     0.015 A 
ATOM     11  C   UNL     1      -1.305 -12.306   3.531  1.00  0.00     0.126 A 
ATOM     12  C   UNL     1      -0.223 -11.652   2.941  1.00  0.00     0.040 A 
ATOM     13  F   UNL     1      -3.714  -9.594   3.736  1.00  0.00    -0.206 F 
ATOM     14  F   UNL     1      -1.212 -13.605   3.841  1.00  0.00    -0.207 F 
ENDBRANCH   1   7
BRANCH   4  15
ATOM     15  C   UNL     1      -4.049  -5.845   0.989  1.00  0.00     0.339 C 
ATOM     16  O   UNL     1      -4.096  -5.196  -0.059  1.00  0.00    -0.246 OA
BRANCH  15  17
ATOM     17  O   UNL     1      -5.168  -6.174   1.691  1.00  0.00    -0.478 OA
ATOM     18  H   UNL     1      -5.530  -7.042   1.414  1.00  0.00     0.297 HD
ENDBRANCH  15  17
ENDBRANCH   4  15
BRANCH   5  19
ATOM     19  O   UNL     1      -1.836  -4.163   1.583  1.00  0.00    -0.507 OA
ATOM     20  H   UNL     1      -2.491  -3.735   2.162  1.00  0.00     0.293 HD
ENDBRANCH   5  19
TORSDOF 4
ENDMDL
MODEL 2
REMARK VINA RESULT:    -6.873      1.653      3.150
REMARK INTER + INTRA:          -8.630
REMARK INTER:                  -8.079
REMARK INTRA:                  -0.551
REMARK UNBOUND:                -0.551
REMARK SMILES O=C(O)c1cc(-c2ccc(F)cc2F)ccc1O
REMARK SMILES IDX 6 1 5 2 15 3 4 4 17 5 16 6 7 7 13 8 12 9 8 10 10 11 9 12
REMARK SMILES IDX 14 13 11 14 2 15 1 16 3 17 18 19
REMARK H PARENT 3 18 18 20
ROOT
ATOM      1  C   UNL     1      -1.574  -8.215   2.473  1.00  0.00    -0.014 A 
ATOM      2  C   UNL     1      -0.484  -7.395   2.763  1.00  0.00     0.028 A 
ATOM      3  C   UNL     1      -2.710  -7.677   1.870  1.00  0.00     0.013 A 
ATOM      4  C   UNL     1      -0.530  -6.037   2.450  1.00  0.00     0.102 A 
ATOM      5  C   UNL     1      -1.666  -5.498   1.846  1.00  0.00     0.130 A 
ATOM      6  C   UNL     1      -2.757  -6.319   1.556  1.00  0.00     0.048 A 
ENDROOT
BRANCH   1   7
ATOM      7  C   UNL     1      -1.528  -9.624   2.799  1.00  0.00     0.018 A 
ATOM      8  C   UNL     1      -0.375 -10.366   2.539  1.00  0.00     0.133 A 
ATOM      9  C   UNL     1      -0.336 -11.725   2.855  1.00  0.00     0.079 A 
ATOM     10  C   UNL     1      -2.639 -10.240   3.376  1.00  0.00     0.015 A 
ATOM     11  C   UNL     1      -1.446 -12.340   3.430  1.00  0.00     0.126 A 
ATOM     12  C   UNL     1      -2.598 -11.597   3.691  1.00  0.00     0.040 A 
ATOM     13  F   UNL     1       0.700  -9.790   1.983  1.00  0.00    -0.206 F 
ATOM     14  F   UNL     1      -1.409 -13.644   3.734  1.00  0.00    -0.207 F 
ENDBRANCH   1   7
BRANCH   4  15
ATOM     15  C   UNL     1       0.620  -5.198   2.761  1.00  0.00     0.339 C 
ATOM     16  O   UNL     1       0.582  -4.146   3.404  1.00  0.00    -0.246 OA
BRANCH  15  17
ATOM     17  O   UNL     1       1.780  -5.701   2.259  1.00  0.00    -0.478 OA
ATOM     18  H   UNL     1       1.766  -6.681   2.221  1.00  0.00     0.297 HD
ENDBRANCH  15  17
ENDBRANCH   4  15
BRANCH   5  19
ATOM     19  O   UNL     1      -1.730  -4.174   1.531  1.00  0.00    -0.507 OA
ATOM     20  H   UNL     1      -1.941  -4.082   0.586  1.00  0.00     0.293 HD
ENDBRANCH   5  19
TORSDOF 4
ENDMDL
MODEL 3
REMARK VINA RESULT:    -6.866      1.235      2.715
REMARK INTER + INTRA:          -8.621
REMARK INTER:                  -8.071
REMARK INTRA:                  -0.550
REMARK UNBOUND:                -0.551
REMARK SMILES O=C(O)c1cc(-c2ccc(F)cc2F)ccc1O
REMARK SMILES IDX 6 1 5 2 15 3 4 4 17 5 16 6 7 7 13 8 12 9 8 10 10 11 9 12
REMARK SMILES IDX 14 13 11 14 2 15 1 16 3 17 18 19
REMARK H PARENT 3 18 18 20
ROOT
ATOM      1  C   UNL     1      -1.594  -8.200   2.502  1.00  0.00    -0.014 A 
ATOM      2  C   UNL     1      -0.498  -7.385   2.783  1.00  0.00     0.028 A 
ATOM      3  C   UNL     1      -2.731  -7.659   1.902  1.00  0.00     0.013 A 
ATOM      4  C   UNL     1      -0.539  -6.027   2.464  1.00  0.00     0.102 A 
ATOM      5  C   UNL     1      -1.676  -5.486   1.863  1.00  0.00     0.130 A 
ATOM      6  C   UNL     1      -2.772  -6.302   1.582  1.00  0.00     0.048 A 
ENDROOT
BRANCH   1   7
ATOM      7  C   UNL     1      -1.553  -9.608   2.834  1.00  0.00     0.018 A 
ATOM      8  C   UNL     1      -2.655 -10.218   3.435  1.00  0.00     0.133 A 
ATOM      9  C   UNL     1      -2.611 -11.576   3.754  1.00  0.00     0.079 A 
ATOM     10  C   UNL     1      -0.410 -10.355   2.551  1.00  0.00     0.015 A 
ATOM     11  C   UNL     1      -1.468 -12.322   3.472  1.00  0.00     0.126 A 
ATOM     12  C   UNL     1      -0.367 -11.712   2.870  1.00  0.00     0.040 A 
ATOM     13  F   UNL     1      -3.760  -9.514   3.717  1.00  0.00    -0.206 F 
ATOM     14  F   UNL     1      -1.425 -13.626   3.777  1.00  0.00    -0.207 F 
ENDBRANCH   1   7
BRANCH   4  15
ATOM     15  C   UNL     1       0.616  -5.192   2.765  1.00  0.00     0.339 C 
ATOM     16  O   UNL     1       0.588  -4.142   3.411  1.00  0.00    -0.246 OA
BRANCH  15  17
ATOM     17  O   UNL     1       1.769  -5.698   2.249  1.00  0.00    -0.478 OA
ATOM     18  H   UNL     1       2.119  -6.435   2.793  1.00  0.00     0.297 HD
ENDBRANCH  15  17
ENDBRANCH   4  15
BRANCH   5  19
ATOM     19  O   UNL     1      -1.735  -4.162   1.543  1.00  0.00    -0.507 OA
ATOM     20  H   UNL     1      -0.834  -3.796   1.539  1.00  0.00     0.293 HD
ENDBRANCH   5  19
TORSDOF 4
ENDMDL
MODEL 4
REMARK VINA RESULT:    -5.401      1.797      3.078
REMARK INTER + INTRA:          -6.899
REMARK INTER:                  -6.356
REMARK INTRA:                  -0.543
REMARK UNBOUND:                -0.551
REMARK SMILES O=C(O)c1cc(-c2ccc(F)cc2F)ccc1O
REMARK SMILES IDX 6 1 5 2 15 3 4 4 17 5 16 6 7 7 13 8 12 9 8 10 10 11 9 12
REMARK SMILES IDX 14 13 11 14 2 15 1 16 3 17 18 19
REMARK H PARENT 3 18 18 20
ROOT
ATOM      1  C   UNL     1      -1.519  -8.655   2.596  1.00  0.00    -0.014 A 
ATOM      2  C   UNL     1      -0.370  -7.903   2.840  1.00  0.00     0.028 A 
ATOM      3  C   UNL     1      -2.665  -8.035   2.098  1.00  0.00     0.013 A 
ATOM      4  C   UNL     1      -0.367  -6.532   2.586  1.00  0.00     0.102 A 
ATOM      5  C   UNL     1      -1.513  -5.912   2.087  1.00  0.00     0.130 A 
ATOM      6  C   UNL     1      -2.662  -6.664   1.843  1.00  0.00     0.048 A 
ENDROOT
BRANCH   1   7
ATOM      7  C   UNL     1      -1.524 -10.078   2.861  1.00  0.00     0.018 A 
ATOM      8  C   UNL     1      -0.858 -10.585   3.977  1.00  0.00     0.133 A 
ATOM      9  C   UNL     1      -0.865 -11.957   4.229  1.00  0.00     0.079 A 
ATOM     10  C   UNL     1      -2.198 -10.942   1.998  1.00  0.00     0.015 A 
ATOM     11  C   UNL     1      -1.538 -12.821   3.365  1.00  0.00     0.126 A 
ATOM     12  C   UNL     1      -2.205 -12.313   2.250  1.00  0.00     0.040 A 
ATOM     13  F   UNL     1      -0.204  -9.768   4.815  1.00  0.00    -0.206 F 
ATOM     14  F   UNL     1      -1.546 -14.138   3.606  1.00  0.00    -0.207 F 
ENDBRANCH   1   7
BRANCH   4  15
ATOM     15  C   UNL     1       0.844  -5.764   2.847  1.00  0.00     0.339 C 
ATOM     16  O   UNL     1       0.878  -4.618   3.300  1.00  0.00    -0.246 OA
BRANCH  15  17
ATOM     17  O   UNL     1       1.973  -6.456   2.534  1.00  0.00    -0.478 OA
ATOM     18  H   UNL     1       2.707  -5.859   2.278  1.00  0.00     0.297 HD
ENDBRANCH  15  17
ENDBRANCH   4  15
BRANCH   5  19
ATOM     19  O   UNL     1      -1.529  -4.573   1.832  1.00  0.00    -0.507 OA
ATOM     20  H   UNL     1      -0.616  -4.263   1.702  1.00  0.00     0.293 HD
ENDBRANCH   5  19
TORSDOF 4
ENDMDL
MODEL 5
REMARK VINA RESULT:    -5.280      4.039      6.276
REMARK INTER + INTRA:          -6.757
REMARK INTER:                  -5.683
REMARK INTRA:                  -1.074
REMARK UNBOUND:                -0.551
REMARK SMILES O=C(O)c1cc(-c2ccc(F)cc2F)ccc1O
REMARK SMILES IDX 6 1 5 2 15 3 4 4 17 5 16 6 7 7 13 8 12 9 8 10 10 11 9 12
REMARK SMILES IDX 14 13 11 14 2 15 1 16 3 17 18 19
REMARK H PARENT 3 18 18 20
ROOT
ATOM      1  C   UNL     1      -1.643 -10.700   3.077  1.00  0.00    -0.014 A 
ATOM      2  C   UNL     1      -2.210 -11.712   2.303  1.00  0.00     0.028 A 
ATOM      3  C   UNL     1      -0.897 -11.023   4.210  1.00  0.00     0.013 A 
ATOM      4  C   UNL     1      -2.032 -13.048   2.662  1.00  0.00     0.102 A 
ATOM      5  C   UNL     1      -1.286 -13.372   3.795  1.00  0.00     0.130 A 
ATOM      6  C   UNL     1      -0.718 -12.359   4.569  1.00  0.00     0.048 A 
ENDROOT
BRANCH   1   7
ATOM      7  C   UNL     1      -1.829  -9.313   2.705  1.00  0.00     0.018 A 
ATOM      8  C   UNL     1      -2.975  -8.628   3.110  1.00  0.00     0.133 A 
ATOM      9  C   UNL     1      -3.150  -7.291   2.750  1.00  0.00     0.079 A 
ATOM     10  C   UNL     1      -0.860  -8.663   1.943  1.00  0.00     0.015 A 
ATOM     11  C   UNL     1      -2.181  -6.641   1.987  1.00  0.00     0.126 A 
ATOM     12  C   UNL     1      -1.036  -7.327   1.584  1.00  0.00     0.040 A 
ATOM     13  F   UNL     1      -3.918  -9.239   3.841  1.00  0.00    -0.206 F 
ATOM     14  F   UNL     1      -2.349  -5.359   1.641  1.00  0.00    -0.207 F 
ENDBRANCH   1   7
BRANCH   4  15
ATOM     15  C   UNL     1      -2.632 -14.090   1.840  1.00  0.00     0.339 C 
ATOM     16  O   UNL     1      -2.357 -15.291   1.898  1.00  0.00    -0.246 OA
BRANCH  15  17
ATOM     17  O   UNL     1      -3.559 -13.598   0.974  1.00  0.00    -0.478 OA
ATOM     18  H   UNL     1      -3.222 -13.577   0.053  1.00  0.00     0.297 HD
ENDBRANCH  15  17
ENDBRANCH   4  15
BRANCH   5  19
ATOM     19  O   UNL     1      -1.099 -14.671   4.163  1.00  0.00    -0.507 OA
ATOM     20  H   UNL     1      -1.817 -15.212   3.790  1.00  0.00     0.293 HD
ENDBRANCH   5  19
TORSDOF 4
ENDMDL
MODEL 6
REMARK VINA RESULT:    -5.221      4.553      6.886
REMARK INTER + INTRA:          -6.687
REMARK INTER:                  -5.617
REMARK INTRA:                  -1.070
REMARK UNBOUND:                -0.551
REMARK SMILES O=C(O)c1cc(-c2ccc(F)cc2F)ccc1O
REMARK SMILES IDX 6 1 5 2 15 3 4 4 17 5 16 6 7 7 13 8 12 9 8 10 10 11 9 12
REMARK SMILES IDX 14 13 11 14 2 15 1 16 3 17 18 19
REMARK H PARENT 3 18 18 20
ROOT
ATOM      1  C   UNL     1      -1.247 -10.653   3.140  1.00  0.00    -0.014 A 
ATOM      2  C   UNL     1      -0.587 -11.117   4.278  1.00  0.00     0.028 A 
ATOM      3  C   UNL     1      -1.924 -11.548   2.313  1.00  0.00     0.013 A 
ATOM      4  C   UNL     1      -0.605 -12.477   4.589  1.00  0.00     0.102 A 
ATOM      5  C   UNL     1      -1.283 -13.372   3.762  1.00  0.00     0.130 A 
ATOM      6  C   UNL     1      -1.943 -12.908   2.623  1.00  0.00     0.048 A 
ENDROOT
BRANCH   1   7
ATOM      7  C   UNL     1      -1.228  -9.243   2.816  1.00  0.00     0.018 A 
ATOM      8  C   UNL     1      -0.150  -8.700   2.116  1.00  0.00     0.133 A 
ATOM      9  C   UNL     1      -0.135  -7.339   1.805  1.00  0.00     0.079 A 
ATOM     10  C   UNL     1      -2.290  -8.427   3.205  1.00  0.00     0.015 A 
ATOM     11  C   UNL     1      -1.197  -6.524   2.195  1.00  0.00     0.126 A 
ATOM     12  C   UNL     1      -2.274  -7.068   2.894  1.00  0.00     0.040 A 
ATOM     13  F   UNL     1       0.880  -9.470   1.737  1.00  0.00    -0.206 F 
ATOM     14  F   UNL     1      -1.184  -5.218   1.897  1.00  0.00    -0.207 F 
ENDBRANCH   1   7
BRANCH   4  15
ATOM     15  C   UNL     1       0.089 -12.941   5.782  1.00  0.00     0.339 C 
ATOM     16  O   UNL     1       0.430 -14.106   6.001  1.00  0.00    -0.246 OA
BRANCH  15  17
ATOM     17  O   UNL     1       0.337 -11.934   6.663  1.00  0.00    -0.478 OA
ATOM     18  H   UNL     1       0.339 -11.058   6.223  1.00  0.00     0.297 HD
ENDBRANCH  15  17
ENDBRANCH   4  15
BRANCH   5  19
ATOM     19  O   UNL     1      -1.313 -14.705   4.048  1.00  0.00    -0.507 OA
ATOM     20  H   UNL     1      -0.435 -15.087   3.873  1.00  0.00     0.293 HD
ENDBRANCH   5  19
TORSDOF 4
ENDMDL
MODEL 7
REMARK VINA RESULT:    -4.542      1.648      2.076
REMARK INTER + INTRA:          -5.890
REMARK INTER:                  -4.888
REMARK INTRA:                  -1.002
REMARK UNBOUND:                -0.551
REMARK SMILES O=C(O)c1cc(-c2ccc(F)cc2F)ccc1O
REMARK SMILES IDX 6 1 5 2 15 3 4 4 17 5 16 6 7 7 13 8 12 9 8 10 10 11 9 12
REMARK SMILES IDX 14 13 11 14 2 15 1 16 3 17 18 19
REMARK H PARENT 3 18 18 20
ROOT
ATOM      1  C   UNL     1      -1.267  -9.730   2.720  1.00  0.00    -0.014 A 
ATOM      2  C   UNL     1      -2.522  -9.124   2.771  1.00  0.00     0.028 A 
ATOM      3  C   UNL     1      -0.223  -9.113   2.031  1.00  0.00     0.013 A 
ATOM      4  C   UNL     1      -2.734  -7.902   2.133  1.00  0.00     0.102 A 
ATOM      5  C   UNL     1      -1.690  -7.285   1.444  1.00  0.00     0.130 A 
ATOM      6  C   UNL     1      -0.433  -7.891   1.393  1.00  0.00     0.048 A 
ENDROOT
BRANCH   1   7
ATOM      7  C   UNL     1      -1.047 -10.998   3.380  1.00  0.00     0.018 A 
ATOM      8  C   UNL     1      -1.598 -12.167   2.853  1.00  0.00     0.133 A 
ATOM      9  C   UNL     1      -1.383 -13.388   3.493  1.00  0.00     0.079 A 
ATOM     10  C   UNL     1      -0.283 -11.051   4.545  1.00  0.00     0.015 A 
ATOM     11  C   UNL     1      -0.620 -13.441   4.658  1.00  0.00     0.126 A 
ATOM     12  C   UNL     1      -0.069 -12.272   5.184  1.00  0.00     0.040 A 
ATOM     13  F   UNL     1      -2.337 -12.134   1.736  1.00  0.00    -0.206 F 
ATOM     14  F   UNL     1      -0.413 -14.612   5.273  1.00  0.00    -0.207 F 
ENDBRANCH   1   7
BRANCH   4  15
ATOM     15  C   UNL     1      -4.052  -7.286   2.198  1.00  0.00     0.339 C 
ATOM     16  O   UNL     1      -4.461  -6.395   1.450  1.00  0.00    -0.246 OA
BRANCH  15  17
ATOM     17  O   UNL     1      -4.818  -7.805   3.196  1.00  0.00    -0.478 OA
ATOM     18  H   UNL     1      -4.290  -7.995   4.000  1.00  0.00     0.297 HD
ENDBRANCH  15  17
ENDBRANCH   4  15
BRANCH   5  19
ATOM     19  O   UNL     1      -1.875  -6.090   0.815  1.00  0.00    -0.507 OA
ATOM     20  H   UNL     1      -2.315  -5.474   1.426  1.00  0.00     0.293 HD
ENDBRANCH   5  19
TORSDOF 4
ENDMDL
MODEL 8
REMARK VINA RESULT:    -4.258      8.588     11.065
REMARK INTER + INTRA:          -5.555
REMARK INTER:                  -4.521
REMARK INTRA:                  -1.034
REMARK UNBOUND:                -0.551
REMARK SMILES O=C(O)c1cc(-c2ccc(F)cc2F)ccc1O
REMARK SMILES IDX 6 1 5 2 15 3 4 4 17 5 16 6 7 7 13 8 12 9 8 10 10 11 9 12
REMARK SMILES IDX 14 13 11 14 2 15 1 16 3 17 18 19
REMARK H PARENT 3 18 18 20
ROOT
ATOM      1  C   UNL     1      -0.278 -14.559   9.187  1.00  0.00    -0.014 A 
ATOM      2  C   UNL     1       0.799 -14.768  10.049  1.00  0.00     0.028 A 
ATOM      3  C   UNL     1      -1.560 -14.961   9.563  1.00  0.00     0.013 A 
ATOM      4  C   UNL     1       0.594 -15.380  11.286  1.00  0.00     0.102 A 
ATOM      5  C   UNL     1      -0.688 -15.782  11.661  1.00  0.00     0.130 A 
ATOM      6  C   UNL     1      -1.765 -15.573  10.799  1.00  0.00     0.048 A 
ENDROOT
BRANCH   1   7
ATOM      7  C   UNL     1      -0.066 -13.925   7.904  1.00  0.00     0.018 A 
ATOM      8  C   UNL     1       0.335 -14.686   6.805  1.00  0.00     0.133 A 
ATOM      9  C   UNL     1       0.538 -14.071   5.569  1.00  0.00     0.079 A 
ATOM     10  C   UNL     1      -0.265 -12.552   7.766  1.00  0.00     0.015 A 
ATOM     11  C   UNL     1       0.340 -12.697   5.432  1.00  0.00     0.126 A 
ATOM     12  C   UNL     1      -0.062 -11.938   6.531  1.00  0.00     0.040 A 
ATOM     13  F   UNL     1       0.533 -16.007   6.921  1.00  0.00    -0.206 F 
ATOM     14  F   UNL     1       0.535 -12.107   4.246  1.00  0.00    -0.207 F 
ENDBRANCH   1   7
BRANCH   4  15
ATOM     15  C   UNL     1       1.731 -15.590  12.171  1.00  0.00     0.339 C 
ATOM     16  O   UNL     1       1.921 -16.591  12.865  1.00  0.00    -0.246 OA
BRANCH  15  17
ATOM     17  O   UNL     1       2.598 -14.540  12.159  1.00  0.00    -0.478 OA
ATOM     18  H   UNL     1       2.851 -14.267  13.065  1.00  0.00     0.297 HD
ENDBRANCH  15  17
ENDBRANCH   4  15
BRANCH   5  19
ATOM     19  O   UNL     1      -0.909 -16.382  12.865  1.00  0.00    -0.507 OA
ATOM     20  H   UNL     1      -1.742 -16.883  12.822  1.00  0.00     0.293 HD
ENDBRANCH   5  19
TORSDOF 4
ENDMDL
MODEL 9
REMARK VINA RESULT:    -3.961      9.399     11.908
REMARK INTER + INTRA:          -5.207
REMARK INTER:                  -4.159
REMARK INTRA:                  -1.048
REMARK UNBOUND:                -0.551
REMARK SMILES O=C(O)c1cc(-c2ccc(F)cc2F)ccc1O
REMARK SMILES IDX 6 1 5 2 15 3 4 4 17 5 16 6 7 7 13 8 12 9 8 10 10 11 9 12
REMARK SMILES IDX 14 13 11 14 2 15 1 16 3 17 18 19
REMARK H PARENT 3 18 18 20
ROOT
ATOM      1  C   UNL     1      -0.153 -15.690   9.534  1.00  0.00    -0.014 A 
ATOM      2  C   UNL     1       0.902 -15.872  10.427  1.00  0.00     0.028 A 
ATOM      3  C   UNL     1      -1.375 -16.325   9.759  1.00  0.00     0.013 A 
ATOM      4  C   UNL     1       0.736 -16.688  11.547  1.00  0.00     0.102 A 
ATOM      5  C   UNL     1      -0.486 -17.322  11.772  1.00  0.00     0.130 A 
ATOM      6  C   UNL     1      -1.542 -17.140  10.878  1.00  0.00     0.048 A 
ENDROOT
BRANCH   1   7
ATOM      7  C   UNL     1       0.018 -14.846   8.371  1.00  0.00     0.018 A 
ATOM      8  C   UNL     1      -0.494 -13.548   8.367  1.00  0.00     0.133 A 
ATOM      9  C   UNL     1      -0.326 -12.737   7.244  1.00  0.00     0.079 A 
ATOM     10  C   UNL     1       0.699 -15.331   7.255  1.00  0.00     0.015 A 
ATOM     11  C   UNL     1       0.353 -13.222   6.128  1.00  0.00     0.126 A 
ATOM     12  C   UNL     1       0.866 -14.519   6.134  1.00  0.00     0.040 A 
ATOM     13  F   UNL     1      -1.153 -13.067   9.431  1.00  0.00    -0.206 F 
ATOM     14  F   UNL     1       0.514 -12.444   5.050  1.00  0.00    -0.207 F 
ENDBRANCH   1   7
BRANCH   4  15
ATOM     15  C   UNL     1       1.850 -16.864  12.468  1.00  0.00     0.339 C 
ATOM     16  O   UNL     1       2.596 -15.966  12.865  1.00  0.00    -0.246 OA
BRANCH  15  17
ATOM     17  O   UNL     1       1.995 -18.157  12.865  1.00  0.00    -0.478 OA
ATOM     18  H   UNL     1       1.466 -18.354  13.667  1.00  0.00     0.297 HD
ENDBRANCH  15  17
ENDBRANCH   4  15
BRANCH   5  19
ATOM     19  O   UNL     1      -0.669 -18.122  12.860  1.00  0.00    -0.507 OA
ATOM     20  H   UNL     1      -0.206 -18.966  12.715  1.00  0.00     0.293 HD
ENDBRANCH   5  19
TORSDOF 4
ENDMDL
