MODEL 1
REMARK VINA RESULT:    -5.151      0.000      0.000
REMARK INTER + INTRA:          -7.131
REMARK INTER:                  -6.356
REMARK INTRA:                  -0.776
REMARK UNBOUND:                -0.776
REMARK SMILES Cc1ccc(C(=O)c2cc(O)c(O)c([N+](=O)[O-])c2)cc1
REMARK SMILES IDX 8 1 18 2 9 3 14 4 10 5 12 6 6 7 7 8 5 9 4 10 19 11 3 12
REMARK SMILES IDX 20 13 2 14 1 15 15 16 17 17 16 18 11 19 13 21
REMARK H PARENT 11 20 13 22
ROOT
ATOM      1  C   UNL     1       1.523   2.288   6.169  1.00  0.00     0.033 A 
ATOM      2  C   UNL     1       2.458   1.308   5.930  1.00  0.00     0.102 A 
ATOM      3  C   UNL     1       0.695   2.785   5.190  1.00  0.00     0.063 A 
ATOM      4  C   UNL     1       2.570   0.794   4.638  1.00  0.00     0.315 A 
ATOM      5  C   UNL     1       0.808   2.272   3.898  1.00  0.00     0.165 A 
ATOM      6  C   UNL     1       1.745   1.276   3.622  1.00  0.00     0.237 A 
ENDROOT
BRANCH   1   7
ATOM      7  C   UNL     1       1.403   2.839   7.553  1.00  0.00     0.193 C 
ATOM      8  O   UNL     1       0.264   3.115   7.958  1.00  0.00    -0.289 OA
BRANCH   7   9
ATOM      9  C   UNL     1       2.558   3.051   8.410  1.00  0.00     0.023 A 
ATOM     10  C   UNL     1       3.171   4.303   8.456  1.00  0.00     0.012 A 
ATOM     11  C   UNL     1       3.052   2.004   9.187  1.00  0.00     0.012 A 
ATOM     12  C   UNL     1       4.279   4.507   9.279  1.00  0.00     0.004 A 
ATOM     13  C   UNL     1       4.160   2.207  10.011  1.00  0.00     0.004 A 
ATOM     14  C   UNL     1       4.774   3.459  10.057  1.00  0.00    -0.051 A 
ATOM     15  C   UNL     1       5.958   3.677  10.935  1.00  0.00     0.044 C 
ENDBRANCH   7   9
ENDBRANCH   1   7
BRANCH   4  16
ATOM     16  N   UNL     1       3.531  -0.220   4.375  1.00  0.00     0.066 N 
ATOM     17  O   UNL     1       3.711  -1.120   5.231  1.00  0.00    -0.258 OA
ATOM     18  O   UNL     1       4.169  -0.186   3.297  1.00  0.00    -0.258 OA
ENDBRANCH   4  16
BRANCH   5  19
ATOM     19  O   UNL     1      -0.005   2.752   2.915  1.00  0.00    -0.504 OA
ATOM     20  H   UNL     1       0.437   2.661   2.054  1.00  0.00     0.293 HD
ENDBRANCH   5  19
BRANCH   6  21
ATOM     21  O   UNL     1       1.845   0.782   2.354  1.00  0.00    -0.500 OA
ATOM     22  H   UNL     1       1.778   1.508   1.714  1.00  0.00     0.294 HD
ENDBRANCH   6  21
TORSDOF 5
ENDMDL
MODEL 2
REMARK VINA RESULT:    -5.134      2.030      3.556
REMARK INTER + INTRA:          -7.110
REMARK INTER:                  -6.351
REMARK INTRA:                  -0.759
REMARK UNBOUND:                -0.776
REMARK SMILES Cc1ccc(C(=O)c2cc(O)c(O)c([N+](=O)[O-])c2)cc1
REMARK SMILES IDX 8 1 18 2 9 3 14 4 10 5 12 6 6 7 7 8 5 9 4 10 19 11 3 12
REMARK SMILES IDX 20 13 2 14 1 15 15 16 17 17 16 18 11 19 13 21
REMARK H PARENT 11 20 13 22
ROOT
ATOM      1  C   UNL     1       3.334   2.214   5.842  1.00  0.00     0.033 A 
ATOM      2  C   UNL     1       2.219   2.860   5.360  1.00  0.00     0.102 A 
ATOM      3  C   UNL     1       3.911   1.144   5.201  1.00  0.00     0.063 A 
ATOM      4  C   UNL     1       1.650   2.410   4.169  1.00  0.00     0.315 A 
ATOM      5  C   UNL     1       3.342   0.692   4.010  1.00  0.00     0.165 A 
ATOM      6  C   UNL     1       2.211   1.326   3.494  1.00  0.00     0.237 A 
ENDROOT
BRANCH   1   7
ATOM      7  C   UNL     1       3.944   2.697   7.117  1.00  0.00     0.193 C 
ATOM      8  O   UNL     1       5.174   2.592   7.235  1.00  0.00    -0.289 OA
BRANCH   7   9
ATOM      9  C   UNL     1       3.151   3.270   8.193  1.00  0.00     0.023 A 
ATOM     10  C   UNL     1       2.731   2.468   9.254  1.00  0.00     0.012 A 
ATOM     11  C   UNL     1       2.810   4.622   8.164  1.00  0.00     0.012 A 
ATOM     12  C   UNL     1       1.970   3.018  10.285  1.00  0.00     0.004 A 
ATOM     13  C   UNL     1       2.049   5.173   9.196  1.00  0.00     0.004 A 
ATOM     14  C   UNL     1       1.629   4.371  10.257  1.00  0.00    -0.051 A 
ATOM     15  C   UNL     1       0.815   4.958  11.359  1.00  0.00     0.044 C 
ENDBRANCH   7   9
ENDBRANCH   1   7
BRANCH   4  16
ATOM     16  N   UNL     1       0.498   3.067   3.658  1.00  0.00     0.066 N 
ATOM     17  O   UNL     1       0.340   4.289   3.899  1.00  0.00    -0.258 OA
ATOM     18  O   UNL     1      -0.327   2.408   2.982  1.00  0.00    -0.258 OA
ENDBRANCH   4  16
BRANCH   5  19
ATOM     19  O   UNL     1       3.901  -0.368   3.362  1.00  0.00    -0.504 OA
ATOM     20  H   UNL     1       4.196  -1.027   4.011  1.00  0.00     0.293 HD
ENDBRANCH   5  19
BRANCH   6  21
ATOM     21  O   UNL     1       1.663   0.876   2.328  1.00  0.00    -0.500 OA
ATOM     22  H   UNL     1       1.787  -0.084   2.259  1.00  0.00     0.294 HD
ENDBRANCH   6  21
TORSDOF 5
ENDMDL
MODEL 3
REMARK VINA RESULT:    -4.361      1.831      2.375
REMARK INTER + INTRA:          -6.156
REMARK INTER:                  -5.408
REMARK INTRA:                  -0.748
REMARK UNBOUND:                -0.776
REMARK SMILES Cc1ccc(C(=O)c2cc(O)c(O)c([N+](=O)[O-])c2)cc1
REMARK SMILES IDX 8 1 18 2 9 3 14 4 10 5 12 6 6 7 7 8 5 9 4 10 19 11 3 12
REMARK SMILES IDX 20 13 2 14 1 15 15 16 17 17 16 18 11 19 13 21
REMARK H PARENT 11 20 13 22
ROOT
ATOM      1  C   UNL     1       2.493   3.304   5.008  1.00  0.00     0.033 A 
ATOM      2  C   UNL     1       3.373   2.258   4.852  1.00  0.00     0.102 A 
ATOM      3  C   UNL     1       1.281   3.362   4.361  1.00  0.00     0.063 A 
ATOM      4  C   UNL     1       3.020   1.210   4.002  1.00  0.00     0.315 A 
ATOM      5  C   UNL     1       0.928   2.314   3.511  1.00  0.00     0.165 A 
ATOM      6  C   UNL     1       1.798   1.237   3.331  1.00  0.00     0.237 A 
ENDROOT
BRANCH   1   7
ATOM      7  C   UNL     1       2.871   4.427   5.918  1.00  0.00     0.193 C 
ATOM      8  O   UNL     1       3.404   5.421   5.403  1.00  0.00    -0.289 OA
BRANCH   7   9
ATOM      9  C   UNL     1       2.634   4.381   7.352  1.00  0.00     0.023 A 
ATOM     10  C   UNL     1       2.785   3.181   8.046  1.00  0.00     0.012 A 
ATOM     11  C   UNL     1       2.258   5.538   8.034  1.00  0.00     0.012 A 
ATOM     12  C   UNL     1       2.558   3.137   9.421  1.00  0.00     0.004 A 
ATOM     13  C   UNL     1       2.031   5.496   9.410  1.00  0.00     0.004 A 
ATOM     14  C   UNL     1       2.181   4.295  10.104  1.00  0.00    -0.051 A 
ATOM     15  C   UNL     1       1.937   4.248  11.574  1.00  0.00     0.044 C 
ENDBRANCH   7   9
ENDBRANCH   1   7
BRANCH   4  16
ATOM     16  N   UNL     1       3.920   0.122   3.831  1.00  0.00     0.066 N 
ATOM     17  O   UNL     1       4.163  -0.287   2.670  1.00  0.00    -0.258 OA
ATOM     18  O   UNL     1       4.444  -0.395   4.845  1.00  0.00    -0.258 OA
ENDBRANCH   4  16
BRANCH   5  19
ATOM     19  O   UNL     1      -0.270   2.354   2.862  1.00  0.00    -0.504 OA
ATOM     20  H   UNL     1      -0.790   3.108   3.185  1.00  0.00     0.293 HD
ENDBRANCH   5  19
BRANCH   6  21
ATOM     21  O   UNL     1       1.441   0.218   2.497  1.00  0.00    -0.500 OA
ATOM     22  H   UNL     1       0.486   0.249   2.334  1.00  0.00     0.294 HD
ENDBRANCH   6  21
TORSDOF 5
ENDMDL
MODEL 4
REMARK VINA RESULT:    -4.311      3.589      4.477
REMARK INTER + INTRA:          -6.095
REMARK INTER:                  -5.126
REMARK INTRA:                  -0.969
REMARK UNBOUND:                -0.776
REMARK SMILES Cc1ccc(C(=O)c2cc(O)c(O)c([N+](=O)[O-])c2)cc1
REMARK SMILES IDX 8 1 18 2 9 3 14 4 10 5 12 6 6 7 7 8 5 9 4 10 19 11 3 12
REMARK SMILES IDX 20 13 2 14 1 15 15 16 17 17 16 18 11 19 13 21
REMARK H PARENT 11 20 13 22
ROOT
ATOM      1  C   UNL     1       2.790   4.327   8.586  1.00  0.00     0.033 A 
ATOM      2  C   UNL     1       2.600   3.199   7.821  1.00  0.00     0.102 A 
ATOM      3  C   UNL     1       2.816   5.594   8.054  1.00  0.00     0.063 A 
ATOM      4  C   UNL     1       2.426   3.348   6.446  1.00  0.00     0.315 A 
ATOM      5  C   UNL     1       2.642   5.743   6.677  1.00  0.00     0.165 A 
ATOM      6  C   UNL     1       2.446   4.619   5.873  1.00  0.00     0.237 A 
ENDROOT
BRANCH   1   7
ATOM      7  C   UNL     1       2.977   4.168  10.060  1.00  0.00     0.193 C 
ATOM      8  O   UNL     1       4.086   3.775  10.453  1.00  0.00    -0.289 OA
BRANCH   7   9
ATOM      9  C   UNL     1       1.919   4.455  11.016  1.00  0.00     0.023 A 
ATOM     10  C   UNL     1       2.189   5.233  12.141  1.00  0.00     0.012 A 
ATOM     11  C   UNL     1       0.635   3.953  10.807  1.00  0.00     0.012 A 
ATOM     12  C   UNL     1       1.175   5.509  13.058  1.00  0.00     0.004 A 
ATOM     13  C   UNL     1      -0.380   4.228  11.723  1.00  0.00     0.004 A 
ATOM     14  C   UNL     1      -0.111   5.007  12.849  1.00  0.00    -0.051 A 
ATOM     15  C   UNL     1      -1.194   5.300  13.830  1.00  0.00     0.044 C 
ENDBRANCH   7   9
ENDBRANCH   1   7
BRANCH   4  16
ATOM     16  N   UNL     1       2.228   2.192   5.642  1.00  0.00     0.066 N 
ATOM     17  O   UNL     1       2.695   2.175   4.478  1.00  0.00    -0.258 OA
ATOM     18  O   UNL     1       1.594   1.222   6.121  1.00  0.00    -0.258 OA
ENDBRANCH   4  16
BRANCH   5  19
ATOM     19  O   UNL     1       2.664   6.991   6.132  1.00  0.00    -0.504 OA
ATOM     20  H   UNL     1       1.928   7.516   6.489  1.00  0.00     0.293 HD
ENDBRANCH   5  19
BRANCH   6  21
ATOM     21  O   UNL     1       2.277   4.778   4.528  1.00  0.00    -0.500 OA
ATOM     22  H   UNL     1       2.771   5.556   4.227  1.00  0.00     0.294 HD
ENDBRANCH   6  21
TORSDOF 5
ENDMDL
MODEL 5
REMARK VINA RESULT:    -4.268      2.327      4.029
REMARK INTER + INTRA:          -6.042
REMARK INTER:                  -5.044
REMARK INTRA:                  -0.999
REMARK UNBOUND:                -0.776
REMARK SMILES Cc1ccc(C(=O)c2cc(O)c(O)c([N+](=O)[O-])c2)cc1
REMARK SMILES IDX 8 1 18 2 9 3 14 4 10 5 12 6 6 7 7 8 5 9 4 10 19 11 3 12
REMARK SMILES IDX 20 13 2 14 1 15 15 16 17 17 16 18 11 19 13 21
REMARK H PARENT 11 20 13 22
ROOT
ATOM      1  C   UNL     1       3.125   2.463   9.185  1.00  0.00     0.033 A 
ATOM      2  C   UNL     1       2.918   2.703   7.847  1.00  0.00     0.102 A 
ATOM      3  C   UNL     1       3.105   1.201   9.729  1.00  0.00     0.063 A 
ATOM      4  C   UNL     1       2.677   1.618   7.004  1.00  0.00     0.315 A 
ATOM      5  C   UNL     1       2.863   0.115   8.886  1.00  0.00     0.165 A 
ATOM      6  C   UNL     1       2.650   0.324   7.523  1.00  0.00     0.237 A 
ENDROOT
BRANCH   1   7
ATOM      7  C   UNL     1       3.383   3.625  10.088  1.00  0.00     0.193 C 
ATOM      8  O   UNL     1       2.419   4.356  10.363  1.00  0.00    -0.289 OA
BRANCH   7   9
ATOM      9  C   UNL     1       4.699   3.910  10.636  1.00  0.00     0.023 A 
ATOM     10  C   UNL     1       5.799   4.026   9.786  1.00  0.00     0.012 A 
ATOM     11  C   UNL     1       4.862   4.068  12.012  1.00  0.00     0.012 A 
ATOM     12  C   UNL     1       7.061   4.299  10.312  1.00  0.00     0.004 A 
ATOM     13  C   UNL     1       6.125   4.341  12.539  1.00  0.00     0.004 A 
ATOM     14  C   UNL     1       7.225   4.457  11.688  1.00  0.00    -0.051 A 
ATOM     15  C   UNL     1       8.575   4.748  12.250  1.00  0.00     0.044 C 
ENDBRANCH   7   9
ENDBRANCH   1   7
BRANCH   4  16
ATOM     16  N   UNL     1       2.462   1.850   5.618  1.00  0.00     0.066 N 
ATOM     17  O   UNL     1       3.177   2.694   5.026  1.00  0.00    -0.258 OA
ATOM     18  O   UNL     1       1.564   1.205   5.028  1.00  0.00    -0.258 OA
ENDBRANCH   4  16
BRANCH   5  19
ATOM     19  O   UNL     1       2.840  -1.144   9.408  1.00  0.00    -0.504 OA
ATOM     20  H   UNL     1       2.586  -1.777   8.716  1.00  0.00     0.293 HD
ENDBRANCH   5  19
BRANCH   6  21
ATOM     21  O   UNL     1       2.416  -0.746   6.709  1.00  0.00    -0.500 OA
ATOM     22  H   UNL     1       1.649  -1.243   7.036  1.00  0.00     0.294 HD
ENDBRANCH   6  21
TORSDOF 5
ENDMDL
MODEL 6
REMARK VINA RESULT:    -4.201      1.234      2.705
REMARK INTER + INTRA:          -5.959
REMARK INTER:                  -5.246
REMARK INTRA:                  -0.713
REMARK UNBOUND:                -0.776
REMARK SMILES Cc1ccc(C(=O)c2cc(O)c(O)c([N+](=O)[O-])c2)cc1
REMARK SMILES IDX 8 1 18 2 9 3 14 4 10 5 12 6 6 7 7 8 5 9 4 10 19 11 3 12
REMARK SMILES IDX 20 13 2 14 1 15 15 16 17 17 16 18 11 19 13 21
REMARK H PARENT 11 20 13 22
ROOT
ATOM      1  C   UNL     1       1.633   2.345   6.437  1.00  0.00     0.033 A 
ATOM      2  C   UNL     1       0.887   2.982   5.473  1.00  0.00     0.102 A 
ATOM      3  C   UNL     1       2.428   1.256   6.167  1.00  0.00     0.063 A 
ATOM      4  C   UNL     1       0.940   2.504   4.164  1.00  0.00     0.315 A 
ATOM      5  C   UNL     1       2.481   0.777   4.858  1.00  0.00     0.165 A 
ATOM      6  C   UNL     1       1.737   1.401   3.855  1.00  0.00     0.237 A 
ENDROOT
BRANCH   1   7
ATOM      7  C   UNL     1       1.575   2.857   7.839  1.00  0.00     0.193 C 
ATOM      8  O   UNL     1       0.455   3.104   8.309  1.00  0.00    -0.289 OA
BRANCH   7   9
ATOM      9  C   UNL     1       2.769   3.066   8.642  1.00  0.00     0.023 A 
ATOM     10  C   UNL     1       3.385   4.317   8.665  1.00  0.00     0.012 A 
ATOM     11  C   UNL     1       3.299   2.015   9.391  1.00  0.00     0.012 A 
ATOM     12  C   UNL     1       4.530   4.518   9.435  1.00  0.00     0.004 A 
ATOM     13  C   UNL     1       4.445   2.215  10.162  1.00  0.00     0.004 A 
ATOM     14  C   UNL     1       5.060   3.466  10.184  1.00  0.00    -0.051 A 
ATOM     15  C   UNL     1       6.285   3.681  11.007  1.00  0.00     0.044 C 
ENDBRANCH   7   9
ENDBRANCH   1   7
BRANCH   4  16
ATOM     16  N   UNL     1       0.175   3.152   3.156  1.00  0.00     0.066 N 
ATOM     17  O   UNL     1      -0.714   2.501   2.556  1.00  0.00    -0.258 OA
ATOM     18  O   UNL     1       0.410   4.356   2.897  1.00  0.00    -0.258 OA
ENDBRANCH   4  16
BRANCH   5  19
ATOM     19  O   UNL     1       3.264  -0.301   4.571  1.00  0.00    -0.504 OA
ATOM     20  H   UNL     1       4.055  -0.009   4.089  1.00  0.00     0.293 HD
ENDBRANCH   5  19
BRANCH   6  21
ATOM     21  O   UNL     1       1.798   0.924   2.579  1.00  0.00    -0.500 OA
ATOM     22  H   UNL     1       2.625   0.433   2.453  1.00  0.00     0.294 HD
ENDBRANCH   6  21
TORSDOF 5
ENDMDL
MODEL 7
REMARK VINA RESULT:    -4.143      3.178      4.432
REMARK INTER + INTRA:          -5.888
REMARK INTER:                  -4.904
REMARK INTRA:                  -0.983
REMARK UNBOUND:                -0.776
REMARK SMILES Cc1ccc(C(=O)c2cc(O)c(O)c([N+](=O)[O-])c2)cc1
REMARK SMILES IDX 8 1 18 2 9 3 14 4 10 5 12 6 6 7 7 8 5 9 4 10 19 11 3 12
REMARK SMILES IDX 20 13 2 14 1 15 15 16 17 17 16 18 11 19 13 21
REMARK H PARENT 11 20 13 22
ROOT
ATOM      1  C   UNL     1       2.629   2.740   8.705  1.00  0.00     0.033 A 
ATOM      2  C   UNL     1       2.294   2.747   7.371  1.00  0.00     0.102 A 
ATOM      3  C   UNL     1       2.891   1.586   9.404  1.00  0.00     0.063 A 
ATOM      4  C   UNL     1       2.218   1.528   6.697  1.00  0.00     0.315 A 
ATOM      5  C   UNL     1       2.814   0.366   8.730  1.00  0.00     0.165 A 
ATOM      6  C   UNL     1       2.478   0.338   7.376  1.00  0.00     0.237 A 
ENDROOT
BRANCH   1   7
ATOM      7  C   UNL     1       2.711   4.046   9.428  1.00  0.00     0.193 C 
ATOM      8  O   UNL     1       3.572   4.853   9.047  1.00  0.00    -0.289 OA
BRANCH   7   9
ATOM      9  C   UNL     1       1.829   4.381  10.534  1.00  0.00     0.023 A 
ATOM     10  C   UNL     1       2.355   4.932  11.703  1.00  0.00     0.012 A 
ATOM     11  C   UNL     1       0.457   4.153  10.426  1.00  0.00     0.012 A 
ATOM     12  C   UNL     1       1.508   5.254  12.764  1.00  0.00     0.004 A 
ATOM     13  C   UNL     1      -0.390   4.475  11.487  1.00  0.00     0.004 A 
ATOM     14  C   UNL     1       0.136   5.026  12.656  1.00  0.00    -0.051 A 
ATOM     15  C   UNL     1      -0.768   5.369  13.791  1.00  0.00     0.044 C 
ENDBRANCH   7   9
ENDBRANCH   1   7
BRANCH   4  16
ATOM     16  N   UNL     1       1.874   1.518   5.318  1.00  0.00     0.066 N 
ATOM     17  O   UNL     1       2.361   0.630   4.577  1.00  0.00    -0.258 OA
ATOM     18  O   UNL     1       1.093   2.396   4.882  1.00  0.00    -0.258 OA
ENDBRANCH   4  16
BRANCH   5  19
ATOM     19  O   UNL     1       3.070  -0.788   9.406  1.00  0.00    -0.504 OA
ATOM     20  H   UNL     1       2.241  -1.149   9.760  1.00  0.00     0.293 HD
ENDBRANCH   5  19
BRANCH   6  21
ATOM     21  O   UNL     1       2.406  -0.861   6.728  1.00  0.00    -0.500 OA
ATOM     22  H   UNL     1       1.532  -0.959   6.319  1.00  0.00     0.294 HD
ENDBRANCH   6  21
TORSDOF 5
ENDMDL
MODEL 8
REMARK VINA RESULT:    -4.130      1.962      2.418
REMARK INTER + INTRA:          -5.872
REMARK INTER:                  -5.180
REMARK INTRA:                  -0.691
REMARK UNBOUND:                -0.776
REMARK SMILES Cc1ccc(C(=O)c2cc(O)c(O)c([N+](=O)[O-])c2)cc1
REMARK SMILES IDX 8 1 18 2 9 3 14 4 10 5 12 6 6 7 7 8 5 9 4 10 19 11 3 12
REMARK SMILES IDX 20 13 2 14 1 15 15 16 17 17 16 18 11 19 13 21
REMARK H PARENT 11 20 13 22
ROOT
ATOM      1  C   UNL     1       3.246   2.497   6.341  1.00  0.00     0.033 A 
ATOM      2  C   UNL     1       3.713   1.311   5.823  1.00  0.00     0.102 A 
ATOM      3  C   UNL     1       2.318   3.280   5.697  1.00  0.00     0.063 A 
ATOM      4  C   UNL     1       3.222   0.884   4.590  1.00  0.00     0.315 A 
ATOM      5  C   UNL     1       1.827   2.852   4.462  1.00  0.00     0.165 A 
ATOM      6  C   UNL     1       2.279   1.653   3.909  1.00  0.00     0.237 A 
ENDROOT
BRANCH   1   7
ATOM      7  C   UNL     1       3.772   2.956   7.662  1.00  0.00     0.193 C 
ATOM      8  O   UNL     1       4.994   2.858   7.853  1.00  0.00    -0.289 OA
BRANCH   7   9
ATOM      9  C   UNL     1       2.909   3.499   8.699  1.00  0.00     0.023 A 
ATOM     10  C   UNL     1       2.558   4.849   8.678  1.00  0.00     0.012 A 
ATOM     11  C   UNL     1       2.432   2.670   9.714  1.00  0.00     0.012 A 
ATOM     12  C   UNL     1       1.730   5.369   9.673  1.00  0.00     0.004 A 
ATOM     13  C   UNL     1       1.604   3.190  10.710  1.00  0.00     0.004 A 
ATOM     14  C   UNL     1       1.253   4.540  10.689  1.00  0.00    -0.051 A 
ATOM     15  C   UNL     1       0.369   5.097  11.752  1.00  0.00     0.044 C 
ENDBRANCH   7   9
ENDBRANCH   1   7
BRANCH   4  16
ATOM     16  N   UNL     1       3.694  -0.340   4.041  1.00  0.00     0.066 N 
ATOM     17  O   UNL     1       4.254  -0.325   2.918  1.00  0.00    -0.258 OA
ATOM     18  O   UNL     1       3.539  -1.397   4.696  1.00  0.00    -0.258 OA
ENDBRANCH   4  16
BRANCH   5  19
ATOM     19  O   UNL     1       0.906   3.615   3.809  1.00  0.00    -0.504 OA
ATOM     20  H   UNL     1       0.039   3.178   3.844  1.00  0.00     0.293 HD
ENDBRANCH   5  19
BRANCH   6  21
ATOM     21  O   UNL     1       1.791   1.246   2.702  1.00  0.00    -0.500 OA
ATOM     22  H   UNL     1       2.386   1.538   1.994  1.00  0.00     0.294 HD
ENDBRANCH   6  21
TORSDOF 5
ENDMDL
MODEL 9
REMARK VINA RESULT:    -4.111      3.697      6.512
REMARK INTER + INTRA:          -5.848
REMARK INTER:                  -4.926
REMARK INTRA:                  -0.922
REMARK UNBOUND:                -0.776
REMARK SMILES Cc1ccc(C(=O)c2cc(O)c(O)c([N+](=O)[O-])c2)cc1
REMARK SMILES IDX 8 1 18 2 9 3 14 4 10 5 12 6 6 7 7 8 5 9 4 10 19 11 3 12
REMARK SMILES IDX 20 13 2 14 1 15 15 16 17 17 16 18 11 19 13 21
REMARK H PARENT 11 20 13 22
ROOT
ATOM      1  C   UNL     1       2.695   4.234   8.731  1.00  0.00     0.033 A 
ATOM      2  C   UNL     1       3.880   4.004   9.390  1.00  0.00     0.102 A 
ATOM      3  C   UNL     1       1.545   4.623   9.377  1.00  0.00     0.063 A 
ATOM      4  C   UNL     1       3.918   4.174  10.774  1.00  0.00     0.315 A 
ATOM      5  C   UNL     1       1.582   4.793  10.761  1.00  0.00     0.165 A 
ATOM      6  C   UNL     1       2.769   4.569  11.460  1.00  0.00     0.237 A 
ENDROOT
BRANCH   1   7
ATOM      7  C   UNL     1       2.654   4.052   7.249  1.00  0.00     0.193 C 
ATOM      8  O   UNL     1       2.333   5.034   6.563  1.00  0.00    -0.289 OA
BRANCH   7   9
ATOM      9  C   UNL     1       2.974   2.785   6.610  1.00  0.00     0.023 A 
ATOM     10  C   UNL     1       3.736   2.766   5.441  1.00  0.00     0.012 A 
ATOM     11  C   UNL     1       2.521   1.589   7.166  1.00  0.00     0.012 A 
ATOM     12  C   UNL     1       4.043   1.551   4.829  1.00  0.00     0.004 A 
ATOM     13  C   UNL     1       2.828   0.373   6.554  1.00  0.00     0.004 A 
ATOM     14  C   UNL     1       3.589   0.354   5.385  1.00  0.00    -0.051 A 
ATOM     15  C   UNL     1       3.916  -0.944   4.729  1.00  0.00     0.044 C 
ENDBRANCH   7   9
ENDBRANCH   1   7
BRANCH   4  16
ATOM     16  N   UNL     1       5.136   3.941  11.469  1.00  0.00     0.066 N 
ATOM     17  O   UNL     1       5.934   3.083  11.021  1.00  0.00    -0.258 OA
ATOM     18  O   UNL     1       5.377   4.599  12.508  1.00  0.00    -0.258 OA
ENDBRANCH   4  16
BRANCH   5  19
ATOM     19  O   UNL     1       0.453   5.179  11.418  1.00  0.00    -0.504 OA
ATOM     20  H   UNL     1       0.628   5.215  12.373  1.00  0.00     0.293 HD
ENDBRANCH   5  19
BRANCH   6  21
ATOM     21  O   UNL     1       2.793   4.739  12.814  1.00  0.00    -0.500 OA
ATOM     22  H   UNL     1       2.412   5.601  13.041  1.00  0.00     0.294 HD
ENDBRANCH   6  21
TORSDOF 5
ENDMDL
