MODEL 1
REMARK VINA RESULT:    -5.260      0.000      0.000
REMARK INTER + INTRA:          -7.257
REMARK INTER:                  -6.490
REMARK INTRA:                  -0.767
REMARK UNBOUND:                -0.767
REMARK SMILES Cc1ccc(C(=O)c2cc(O)c(O)c([N+](=O)[O-])c2)cc1
REMARK SMILES IDX 8 1 18 2 9 3 14 4 10 5 12 6 6 7 7 8 5 9 4 10 19 11 3 12
REMARK SMILES IDX 20 13 2 14 1 15 15 16 17 17 16 18 11 19 13 21
REMARK H PARENT 11 20 13 22
ROOT
ATOM      1  C   UNL     1       2.498   7.661  -3.061  1.00  0.00     0.033 A 
ATOM      2  C   UNL     1       1.543   7.656  -2.070  1.00  0.00     0.102 A 
ATOM      3  C   UNL     1       3.261   6.559  -3.368  1.00  0.00     0.063 A 
ATOM      4  C   UNL     1       1.339   6.481  -1.347  1.00  0.00     0.315 A 
ATOM      5  C   UNL     1       3.057   5.384  -2.644  1.00  0.00     0.165 A 
ATOM      6  C   UNL     1       2.096   5.345  -1.633  1.00  0.00     0.237 A 
ENDROOT
BRANCH   1   7
ATOM      7  C   UNL     1       2.717   8.919  -3.836  1.00  0.00     0.193 C 
ATOM      8  O   UNL     1       3.023   8.804  -5.033  1.00  0.00    -0.289 OA
BRANCH   7   9
ATOM      9  C   UNL     1       2.583  10.237  -3.237  1.00  0.00     0.023 A 
ATOM     10  C   UNL     1       3.710  10.900  -2.749  1.00  0.00     0.012 A 
ATOM     11  C   UNL     1       1.328  10.840  -3.150  1.00  0.00     0.012 A 
ATOM     12  C   UNL     1       3.581  12.164  -2.175  1.00  0.00     0.004 A 
ATOM     13  C   UNL     1       1.199  12.105  -2.576  1.00  0.00     0.004 A 
ATOM     14  C   UNL     1       2.326  12.767  -2.088  1.00  0.00    -0.051 A 
ATOM     15  C   UNL     1       2.189  14.118  -1.473  1.00  0.00     0.044 C 
ENDBRANCH   7   9
ENDBRANCH   1   7
BRANCH   4  16
ATOM     16  N   UNL     1       0.356   6.460  -0.320  1.00  0.00     0.066 N 
ATOM     17  O   UNL     1      -0.655   7.195  -0.434  1.00  0.00    -0.258 OA
ATOM     18  O   UNL     1       0.526   5.708   0.667  1.00  0.00    -0.258 OA
ENDBRANCH   4  16
BRANCH   5  19
ATOM     19  O   UNL     1       3.804   4.282  -2.935  1.00  0.00    -0.504 OA
ATOM     20  H   UNL     1       3.722   4.074  -3.880  1.00  0.00     0.293 HD
ENDBRANCH   5  19
BRANCH   6  21
ATOM     21  O   UNL     1       1.906   4.190  -0.932  1.00  0.00    -0.500 OA
ATOM     22  H   UNL     1       2.518   4.160  -0.180  1.00  0.00     0.294 HD
ENDBRANCH   6  21
TORSDOF 5
ENDMDL
MODEL 2
REMARK VINA RESULT:    -5.209      1.992      3.535
REMARK INTER + INTRA:          -7.194
REMARK INTER:                  -6.440
REMARK INTRA:                  -0.754
REMARK UNBOUND:                -0.767
REMARK SMILES Cc1ccc(C(=O)c2cc(O)c(O)c([N+](=O)[O-])c2)cc1
REMARK SMILES IDX 8 1 18 2 9 3 14 4 10 5 12 6 6 7 7 8 5 9 4 10 19 11 3 12
REMARK SMILES IDX 20 13 2 14 1 15 15 16 17 17 16 18 11 19 13 21
REMARK H PARENT 11 20 13 22
ROOT
ATOM      1  C   UNL     1       2.268   8.217  -1.339  1.00  0.00     0.033 A 
ATOM      2  C   UNL     1       3.146   7.485  -2.104  1.00  0.00     0.102 A 
ATOM      3  C   UNL     1       1.317   7.638  -0.533  1.00  0.00     0.063 A 
ATOM      4  C   UNL     1       3.067   6.093  -2.061  1.00  0.00     0.315 A 
ATOM      5  C   UNL     1       1.238   6.245  -0.490  1.00  0.00     0.165 A 
ATOM      6  C   UNL     1       2.114   5.473  -1.254  1.00  0.00     0.237 A 
ENDROOT
BRANCH   1   7
ATOM      7  C   UNL     1       2.352   9.709  -1.385  1.00  0.00     0.193 C 
ATOM      8  O   UNL     1       2.094  10.326  -0.340  1.00  0.00    -0.289 OA
BRANCH   7   9
ATOM      9  C   UNL     1       2.719  10.432  -2.592  1.00  0.00     0.023 A 
ATOM     10  C   UNL     1       1.725  10.947  -3.425  1.00  0.00     0.012 A 
ATOM     11  C   UNL     1       4.063  10.611  -2.917  1.00  0.00     0.012 A 
ATOM     12  C   UNL     1       2.077  11.641  -4.583  1.00  0.00     0.004 A 
ATOM     13  C   UNL     1       4.416  11.305  -4.075  1.00  0.00     0.004 A 
ATOM     14  C   UNL     1       3.423  11.820  -4.908  1.00  0.00    -0.051 A 
ATOM     15  C   UNL     1       3.798  12.561  -6.146  1.00  0.00     0.044 C 
ENDBRANCH   7   9
ENDBRANCH   1   7
BRANCH   4  16
ATOM     16  N   UNL     1       3.968   5.323  -2.847  1.00  0.00     0.066 N 
ATOM     17  O   UNL     1       3.594   4.205  -3.276  1.00  0.00    -0.258 OA
ATOM     18  O   UNL     1       5.108   5.784  -3.088  1.00  0.00    -0.258 OA
ENDBRANCH   4  16
BRANCH   5  19
ATOM     19  O   UNL     1       0.302   5.653   0.303  1.00  0.00    -0.504 OA
ATOM     20  H   UNL     1       0.617   4.777   0.580  1.00  0.00     0.293 HD
ENDBRANCH   5  19
BRANCH   6  21
ATOM     21  O   UNL     1       2.028   4.112  -1.203  1.00  0.00    -0.500 OA
ATOM     22  H   UNL     1       1.530   3.788  -1.970  1.00  0.00     0.294 HD
ENDBRANCH   6  21
TORSDOF 5
ENDMDL
MODEL 3
REMARK VINA RESULT:    -4.717      1.642      2.942
REMARK INTER + INTRA:          -6.587
REMARK INTER:                  -5.954
REMARK INTRA:                  -0.633
REMARK UNBOUND:                -0.767
REMARK SMILES Cc1ccc(C(=O)c2cc(O)c(O)c([N+](=O)[O-])c2)cc1
REMARK SMILES IDX 8 1 18 2 9 3 14 4 10 5 12 6 6 7 7 8 5 9 4 10 19 11 3 12
REMARK SMILES IDX 20 13 2 14 1 15 15 16 17 17 16 18 11 19 13 21
REMARK H PARENT 11 20 13 22
ROOT
ATOM      1  C   UNL     1       1.075   7.394  -2.369  1.00  0.00     0.033 A 
ATOM      2  C   UNL     1       2.110   6.714  -2.968  1.00  0.00     0.102 A 
ATOM      3  C   UNL     1       0.520   7.005  -1.173  1.00  0.00     0.063 A 
ATOM      4  C   UNL     1       2.620   5.581  -2.334  1.00  0.00     0.315 A 
ATOM      5  C   UNL     1       1.030   5.871  -0.539  1.00  0.00     0.165 A 
ATOM      6  C   UNL     1       2.080   5.159  -1.120  1.00  0.00     0.237 A 
ENDROOT
BRANCH   1   7
ATOM      7  C   UNL     1       0.529   8.607  -3.048  1.00  0.00     0.193 C 
ATOM      8  O   UNL     1      -0.487   8.461  -3.744  1.00  0.00    -0.289 OA
BRANCH   7   9
ATOM      9  C   UNL     1       1.143   9.918  -2.914  1.00  0.00     0.023 A 
ATOM     10  C   UNL     1       2.516  10.026  -2.696  1.00  0.00     0.012 A 
ATOM     11  C   UNL     1       0.359  11.068  -3.004  1.00  0.00     0.012 A 
ATOM     12  C   UNL     1       3.105  11.284  -2.568  1.00  0.00     0.004 A 
ATOM     13  C   UNL     1       0.947  12.327  -2.876  1.00  0.00     0.004 A 
ATOM     14  C   UNL     1       2.321  12.435  -2.658  1.00  0.00    -0.051 A 
ATOM     15  C   UNL     1       2.951  13.779  -2.520  1.00  0.00     0.044 C 
ENDBRANCH   7   9
ENDBRANCH   1   7
BRANCH   4  16
ATOM     16  N   UNL     1       3.690   4.869  -2.942  1.00  0.00     0.066 N 
ATOM     17  O   UNL     1       4.787   5.452  -3.111  1.00  0.00    -0.258 OA
ATOM     18  O   UNL     1       3.505   3.679  -3.289  1.00  0.00    -0.258 OA
ENDBRANCH   4  16
BRANCH   5  19
ATOM     19  O   UNL     1       0.493   5.470   0.648  1.00  0.00    -0.504 OA
ATOM     20  H   UNL     1      -0.144   4.754   0.492  1.00  0.00     0.293 HD
ENDBRANCH   5  19
BRANCH   6  21
ATOM     21  O   UNL     1       2.570   4.052  -0.490  1.00  0.00    -0.500 OA
ATOM     22  H   UNL     1       2.609   4.211   0.466  1.00  0.00     0.294 HD
ENDBRANCH   6  21
TORSDOF 5
ENDMDL
MODEL 4
REMARK VINA RESULT:    -4.627      1.831      2.347
REMARK INTER + INTRA:          -6.477
REMARK INTER:                  -5.740
REMARK INTRA:                  -0.737
REMARK UNBOUND:                -0.767
REMARK SMILES Cc1ccc(C(=O)c2cc(O)c(O)c([N+](=O)[O-])c2)cc1
REMARK SMILES IDX 8 1 18 2 9 3 14 4 10 5 12 6 6 7 7 8 5 9 4 10 19 11 3 12
REMARK SMILES IDX 20 13 2 14 1 15 15 16 17 17 16 18 11 19 13 21
REMARK H PARENT 11 20 13 22
ROOT
ATOM      1  C   UNL     1       3.593   7.332  -1.663  1.00  0.00     0.033 A 
ATOM      2  C   UNL     1       2.521   7.311  -0.801  1.00  0.00     0.102 A 
ATOM      3  C   UNL     1       3.940   6.258  -2.449  1.00  0.00     0.063 A 
ATOM      4  C   UNL     1       1.753   6.149  -0.721  1.00  0.00     0.315 A 
ATOM      5  C   UNL     1       3.172   5.096  -2.368  1.00  0.00     0.165 A 
ATOM      6  C   UNL     1       2.077   5.042  -1.504  1.00  0.00     0.237 A 
ENDROOT
BRANCH   1   7
ATOM      7  C   UNL     1       4.417   8.575  -1.749  1.00  0.00     0.193 C 
ATOM      8  O   UNL     1       5.435   8.633  -1.043  1.00  0.00    -0.289 OA
BRANCH   7   9
ATOM      9  C   UNL     1       4.062   9.687  -2.617  1.00  0.00     0.023 A 
ATOM     10  C   UNL     1       2.729   9.899  -2.969  1.00  0.00     0.012 A 
ATOM     11  C   UNL     1       5.054  10.541  -3.097  1.00  0.00     0.012 A 
ATOM     12  C   UNL     1       2.389  10.966  -3.801  1.00  0.00     0.004 A 
ATOM     13  C   UNL     1       4.715  11.608  -3.929  1.00  0.00     0.004 A 
ATOM     14  C   UNL     1       3.382  11.821  -4.281  1.00  0.00    -0.051 A 
ATOM     15  C   UNL     1       3.018  12.960  -5.172  1.00  0.00     0.044 C 
ENDBRANCH   7   9
ENDBRANCH   1   7
BRANCH   4  16
ATOM     16  N   UNL     1       0.642   6.113   0.166  1.00  0.00     0.066 N 
ATOM     17  O   UNL     1       0.524   5.141   0.951  1.00  0.00    -0.258 OA
ATOM     18  O   UNL     1      -0.187   7.052   0.138  1.00  0.00    -0.258 OA
ENDBRANCH   4  16
BRANCH   5  19
ATOM     19  O   UNL     1       3.500   4.023  -3.140  1.00  0.00    -0.504 OA
ATOM     20  H   UNL     1       3.674   4.317  -4.050  1.00  0.00     0.293 HD
ENDBRANCH   5  19
BRANCH   6  21
ATOM     21  O   UNL     1       1.333   3.901  -1.435  1.00  0.00    -0.500 OA
ATOM     22  H   UNL     1       1.799   3.239  -0.900  1.00  0.00     0.294 HD
ENDBRANCH   6  21
TORSDOF 5
ENDMDL
MODEL 5
REMARK VINA RESULT:    -4.466      2.402      4.180
REMARK INTER + INTRA:          -6.278
REMARK INTER:                  -5.314
REMARK INTRA:                  -0.964
REMARK UNBOUND:                -0.767
REMARK SMILES Cc1ccc(C(=O)c2cc(O)c(O)c([N+](=O)[O-])c2)cc1
REMARK SMILES IDX 8 1 18 2 9 3 14 4 10 5 12 6 6 7 7 8 5 9 4 10 19 11 3 12
REMARK SMILES IDX 20 13 2 14 1 15 15 16 17 17 16 18 11 19 13 21
REMARK H PARENT 11 20 13 22
ROOT
ATOM      1  C   UNL     1       1.748  11.194  -3.085  1.00  0.00     0.033 A 
ATOM      2  C   UNL     1       2.396  10.068  -2.633  1.00  0.00     0.102 A 
ATOM      3  C   UNL     1       0.399  11.224  -3.348  1.00  0.00     0.063 A 
ATOM      4  C   UNL     1       1.651   8.906  -2.432  1.00  0.00     0.315 A 
ATOM      5  C   UNL     1      -0.346  10.062  -3.148  1.00  0.00     0.165 A 
ATOM      6  C   UNL     1       0.281   8.902  -2.689  1.00  0.00     0.237 A 
ENDROOT
BRANCH   1   7
ATOM      7  C   UNL     1       2.546  12.439  -3.301  1.00  0.00     0.193 C 
ATOM      8  O   UNL     1       3.198  12.522  -4.352  1.00  0.00    -0.289 OA
BRANCH   7   9
ATOM      9  C   UNL     1       2.573  13.525  -2.334  1.00  0.00     0.023 A 
ATOM     10  C   UNL     1       2.258  14.824  -2.733  1.00  0.00     0.012 A 
ATOM     11  C   UNL     1       2.915  13.268  -1.006  1.00  0.00     0.012 A 
ATOM     12  C   UNL     1       2.284  15.864  -1.805  1.00  0.00     0.004 A 
ATOM     13  C   UNL     1       2.941  14.309  -0.077  1.00  0.00     0.004 A 
ATOM     14  C   UNL     1       2.626  15.608  -0.477  1.00  0.00    -0.051 A 
ATOM     15  C   UNL     1       2.655  16.721   0.514  1.00  0.00     0.044 C 
ENDBRANCH   7   9
ENDBRANCH   1   7
BRANCH   4  16
ATOM     16  N   UNL     1       2.307   7.734  -1.964  1.00  0.00     0.066 N 
ATOM     17  O   UNL     1       3.291   7.856  -1.195  1.00  0.00    -0.258 OA
ATOM     18  O   UNL     1       1.883   6.614  -2.334  1.00  0.00    -0.258 OA
ENDBRANCH   4  16
BRANCH   5  19
ATOM     19  O   UNL     1      -1.684  10.073  -3.403  1.00  0.00    -0.504 OA
ATOM     20  H   UNL     1      -1.847  10.481  -4.269  1.00  0.00     0.293 HD
ENDBRANCH   5  19
BRANCH   6  21
ATOM     21  O   UNL     1      -0.458   7.772  -2.496  1.00  0.00    -0.500 OA
ATOM     22  H   UNL     1      -1.200   7.756  -3.122  1.00  0.00     0.294 HD
ENDBRANCH   6  21
TORSDOF 5
ENDMDL
MODEL 6
REMARK VINA RESULT:    -4.456      3.530      7.153
REMARK INTER + INTRA:          -6.265
REMARK INTER:                  -5.316
REMARK INTRA:                  -0.949
REMARK UNBOUND:                -0.767
REMARK SMILES Cc1ccc(C(=O)c2cc(O)c(O)c([N+](=O)[O-])c2)cc1
REMARK SMILES IDX 8 1 18 2 9 3 14 4 10 5 12 6 6 7 7 8 5 9 4 10 19 11 3 12
REMARK SMILES IDX 20 13 2 14 1 15 15 16 17 17 16 18 11 19 13 21
REMARK H PARENT 11 20 13 22
ROOT
ATOM      1  C   UNL     1       2.001  11.175  -3.149  1.00  0.00     0.033 A 
ATOM      2  C   UNL     1       2.614  11.352  -4.368  1.00  0.00     0.102 A 
ATOM      3  C   UNL     1       1.823  12.197  -2.248  1.00  0.00     0.063 A 
ATOM      4  C   UNL     1       3.074  12.625  -4.704  1.00  0.00     0.315 A 
ATOM      5  C   UNL     1       2.283  13.470  -2.583  1.00  0.00     0.165 A 
ATOM      6  C   UNL     1       2.909  13.685  -3.812  1.00  0.00     0.237 A 
ENDROOT
BRANCH   1   7
ATOM      7  C   UNL     1       1.509   9.811  -2.789  1.00  0.00     0.193 C 
ATOM      8  O   UNL     1       0.321   9.707  -2.447  1.00  0.00    -0.289 OA
BRANCH   7   9
ATOM      9  C   UNL     1       2.365   8.636  -2.830  1.00  0.00     0.023 A 
ATOM     10  C   UNL     1       3.622   8.668  -2.224  1.00  0.00     0.012 A 
ATOM     11  C   UNL     1       1.931   7.478  -3.473  1.00  0.00     0.012 A 
ATOM     12  C   UNL     1       4.443   7.542  -2.263  1.00  0.00     0.004 A 
ATOM     13  C   UNL     1       2.752   6.350  -3.512  1.00  0.00     0.004 A 
ATOM     14  C   UNL     1       4.009   6.382  -2.907  1.00  0.00    -0.051 A 
ATOM     15  C   UNL     1       4.888   5.179  -2.949  1.00  0.00     0.044 C 
ENDBRANCH   7   9
ENDBRANCH   1   7
BRANCH   4  16
ATOM     16  N   UNL     1       3.709  12.824  -5.961  1.00  0.00     0.066 N 
ATOM     17  O   UNL     1       4.359  11.878  -6.468  1.00  0.00    -0.258 OA
ATOM     18  O   UNL     1       3.601  13.938  -6.524  1.00  0.00    -0.258 OA
ENDBRANCH   4  16
BRANCH   5  19
ATOM     19  O   UNL     1       2.115  14.496  -1.702  1.00  0.00    -0.504 OA
ATOM     20  H   UNL     1       1.286  14.963  -1.902  1.00  0.00     0.293 HD
ENDBRANCH   5  19
BRANCH   6  21
ATOM     21  O   UNL     1       3.354  14.935  -4.130  1.00  0.00    -0.500 OA
ATOM     22  H   UNL     1       4.313  14.984  -3.990  1.00  0.00     0.294 HD
ENDBRANCH   6  21
TORSDOF 5
ENDMDL
MODEL 7
REMARK VINA RESULT:    -4.442      3.739      6.917
REMARK INTER + INTRA:          -6.248
REMARK INTER:                  -5.281
REMARK INTRA:                  -0.967
REMARK UNBOUND:                -0.767
REMARK SMILES Cc1ccc(C(=O)c2cc(O)c(O)c([N+](=O)[O-])c2)cc1
REMARK SMILES IDX 8 1 18 2 9 3 14 4 10 5 12 6 6 7 7 8 5 9 4 10 19 11 3 12
REMARK SMILES IDX 20 13 2 14 1 15 15 16 17 17 16 18 11 19 13 21
REMARK H PARENT 11 20 13 22
ROOT
ATOM      1  C   UNL     1       2.160  11.217  -3.270  1.00  0.00     0.033 A 
ATOM      2  C   UNL     1       2.083  12.291  -2.414  1.00  0.00     0.102 A 
ATOM      3  C   UNL     1       2.684  11.309  -4.538  1.00  0.00     0.063 A 
ATOM      4  C   UNL     1       2.558  13.527  -2.851  1.00  0.00     0.315 A 
ATOM      5  C   UNL     1       3.159  12.546  -4.975  1.00  0.00     0.165 A 
ATOM      6  C   UNL     1       3.097  13.656  -4.131  1.00  0.00     0.237 A 
ENDROOT
BRANCH   1   7
ATOM      7  C   UNL     1       1.650   9.892  -2.803  1.00  0.00     0.193 C 
ATOM      8  O   UNL     1       0.487   9.849  -2.374  1.00  0.00    -0.289 OA
BRANCH   7   9
ATOM      9  C   UNL     1       2.464   8.688  -2.839  1.00  0.00     0.023 A 
ATOM     10  C   UNL     1       1.989   7.545  -3.484  1.00  0.00     0.012 A 
ATOM     11  C   UNL     1       3.718   8.674  -2.230  1.00  0.00     0.012 A 
ATOM     12  C   UNL     1       2.770   6.390  -3.518  1.00  0.00     0.004 A 
ATOM     13  C   UNL     1       4.499   7.518  -2.264  1.00  0.00     0.004 A 
ATOM     14  C   UNL     1       4.025   6.376  -2.909  1.00  0.00    -0.051 A 
ATOM     15  C   UNL     1       4.858   5.140  -2.945  1.00  0.00     0.044 C 
ENDBRANCH   7   9
ENDBRANCH   1   7
BRANCH   4  16
ATOM     16  N   UNL     1       2.485  14.647  -1.976  1.00  0.00     0.066 N 
ATOM     17  O   UNL     1       2.515  14.451  -0.738  1.00  0.00    -0.258 OA
ATOM     18  O   UNL     1       2.395  15.795  -2.469  1.00  0.00    -0.258 OA
ENDBRANCH   4  16
BRANCH   5  19
ATOM     19  O   UNL     1       3.683  12.656  -6.228  1.00  0.00    -0.504 OA
ATOM     20  H   UNL     1       4.111  11.820  -6.476  1.00  0.00     0.293 HD
ENDBRANCH   5  19
BRANCH   6  21
ATOM     21  O   UNL     1       3.565  14.860  -4.569  1.00  0.00    -0.500 OA
ATOM     22  H   UNL     1       4.531  14.825  -4.648  1.00  0.00     0.294 HD
ENDBRANCH   6  21
TORSDOF 5
ENDMDL
MODEL 8
REMARK VINA RESULT:    -4.410      3.783      7.016
REMARK INTER + INTRA:          -6.209
REMARK INTER:                  -5.228
REMARK INTRA:                  -0.981
REMARK UNBOUND:                -0.767
REMARK SMILES Cc1ccc(C(=O)c2cc(O)c(O)c([N+](=O)[O-])c2)cc1
REMARK SMILES IDX 8 1 18 2 9 3 14 4 10 5 12 6 6 7 7 8 5 9 4 10 19 11 3 12
REMARK SMILES IDX 20 13 2 14 1 15 15 16 17 17 16 18 11 19 13 21
REMARK H PARENT 11 20 13 22
ROOT
ATOM      1  C   UNL     1       3.362  11.141  -3.063  1.00  0.00     0.033 A 
ATOM      2  C   UNL     1       3.592  11.533  -4.361  1.00  0.00     0.102 A 
ATOM      3  C   UNL     1       2.962  12.015  -2.080  1.00  0.00     0.063 A 
ATOM      4  C   UNL     1       3.410  12.874  -4.695  1.00  0.00     0.315 A 
ATOM      5  C   UNL     1       2.781  13.357  -2.414  1.00  0.00     0.165 A 
ATOM      6  C   UNL     1       3.004  13.787  -3.722  1.00  0.00     0.237 A 
ENDROOT
BRANCH   1   7
ATOM      7  C   UNL     1       3.557   9.704  -2.704  1.00  0.00     0.193 C 
ATOM      8  O   UNL     1       4.659   9.197  -2.964  1.00  0.00    -0.289 OA
BRANCH   7   9
ATOM      9  C   UNL     1       2.514   8.909  -2.076  1.00  0.00     0.023 A 
ATOM     10  C   UNL     1       2.782   8.216  -0.895  1.00  0.00     0.012 A 
ATOM     11  C   UNL     1       1.246   8.839  -2.653  1.00  0.00     0.012 A 
ATOM     12  C   UNL     1       1.781   7.453  -0.292  1.00  0.00     0.004 A 
ATOM     13  C   UNL     1       0.245   8.077  -2.050  1.00  0.00     0.004 A 
ATOM     14  C   UNL     1       0.513   7.384  -0.869  1.00  0.00    -0.051 A 
ATOM     15  C   UNL     1      -0.556   6.568  -0.225  1.00  0.00     0.044 C 
ENDBRANCH   7   9
ENDBRANCH   1   7
BRANCH   4  16
ATOM     16  N   UNL     1       3.644  13.294  -6.034  1.00  0.00     0.066 N 
ATOM     17  O   UNL     1       4.017  14.473  -6.243  1.00  0.00    -0.258 OA
ATOM     18  O   UNL     1       3.471  12.473  -6.965  1.00  0.00    -0.258 OA
ENDBRANCH   4  16
BRANCH   5  19
ATOM     19  O   UNL     1       2.383  14.238  -1.452  1.00  0.00    -0.504 OA
ATOM     20  H   UNL     1       2.516  15.146  -1.769  1.00  0.00     0.293 HD
ENDBRANCH   5  19
BRANCH   6  21
ATOM     21  O   UNL     1       2.823  15.103  -4.037  1.00  0.00    -0.500 OA
ATOM     22  H   UNL     1       3.023  15.653  -3.264  1.00  0.00     0.294 HD
ENDBRANCH   6  21
TORSDOF 5
ENDMDL
MODEL 9
REMARK VINA RESULT:    -4.319      1.979      2.551
REMARK INTER + INTRA:          -6.096
REMARK INTER:                  -5.428
REMARK INTRA:                  -0.667
REMARK UNBOUND:                -0.767
REMARK SMILES Cc1ccc(C(=O)c2cc(O)c(O)c([N+](=O)[O-])c2)cc1
REMARK SMILES IDX 8 1 18 2 9 3 14 4 10 5 12 6 6 7 7 8 5 9 4 10 19 11 3 12
REMARK SMILES IDX 20 13 2 14 1 15 15 16 17 17 16 18 11 19 13 21
REMARK H PARENT 11 20 13 22
ROOT
ATOM      1  C   UNL     1       2.446   8.732  -1.697  1.00  0.00     0.033 A 
ATOM      2  C   UNL     1       1.381   8.163  -1.038  1.00  0.00     0.102 A 
ATOM      3  C   UNL     1       3.480   7.995  -2.222  1.00  0.00     0.063 A 
ATOM      4  C   UNL     1       1.349   6.775  -0.897  1.00  0.00     0.315 A 
ATOM      5  C   UNL     1       3.449   6.607  -2.080  1.00  0.00     0.165 A 
ATOM      6  C   UNL     1       2.382   5.997  -1.418  1.00  0.00     0.237 A 
ENDROOT
BRANCH   1   7
ATOM      7  C   UNL     1       2.481  10.219  -1.847  1.00  0.00     0.193 C 
ATOM      8  O   UNL     1       2.191  10.898  -0.851  1.00  0.00    -0.289 OA
BRANCH   7   9
ATOM      9  C   UNL     1       2.837  10.867  -3.099  1.00  0.00     0.023 A 
ATOM     10  C   UNL     1       1.836  11.316  -3.962  1.00  0.00     0.012 A 
ATOM     11  C   UNL     1       4.178  11.041  -3.438  1.00  0.00     0.012 A 
ATOM     12  C   UNL     1       2.177  11.938  -5.162  1.00  0.00     0.004 A 
ATOM     13  C   UNL     1       4.521  11.664  -4.639  1.00  0.00     0.004 A 
ATOM     14  C   UNL     1       3.520  12.113  -5.501  1.00  0.00    -0.051 A 
ATOM     15  C   UNL     1       3.884  12.777  -6.785  1.00  0.00     0.044 C 
ENDBRANCH   7   9
ENDBRANCH   1   7
BRANCH   4  16
ATOM     16  N   UNL     1       0.254   6.172  -0.219  1.00  0.00     0.066 N 
ATOM     17  O   UNL     1      -0.908   6.367  -0.651  1.00  0.00    -0.258 OA
ATOM     18  O   UNL     1       0.483   5.463   0.788  1.00  0.00    -0.258 OA
ENDBRANCH   4  16
BRANCH   5  19
ATOM     19  O   UNL     1       4.465   5.859  -2.595  1.00  0.00    -0.504 OA
ATOM     20  H   UNL     1       4.349   4.930  -2.336  1.00  0.00     0.293 HD
ENDBRANCH   5  19
BRANCH   6  21
ATOM     21  O   UNL     1       2.362   4.639  -1.287  1.00  0.00    -0.500 OA
ATOM     22  H   UNL     1       3.178   4.341  -0.855  1.00  0.00     0.294 HD
ENDBRANCH   6  21
TORSDOF 5
ENDMDL
