MODEL 1
REMARK VINA RESULT:    -6.893      0.000      0.000
REMARK INTER + INTRA:          -8.770
REMARK INTER:                  -8.102
REMARK INTRA:                  -0.668
REMARK UNBOUND:                -0.668
REMARK SMILES O=C(O)c1cc(-c2ccc(F)cc2F)ccc1O
REMARK SMILES IDX 6 1 5 2 15 3 4 4 17 5 16 6 7 7 13 8 12 9 8 10 10 11 9 12
REMARK SMILES IDX 14 13 11 14 2 15 1 16 3 17 18 19
REMARK H PARENT 3 18 18 20
ROOT
ATOM      1  C   UNL     1       2.252   8.217  -2.322  1.00  0.00    -0.014 A 
ATOM      2  C   UNL     1       1.250   7.920  -1.398  1.00  0.00     0.028 A 
ATOM      3  C   UNL     1       3.044   7.194  -2.844  1.00  0.00     0.013 A 
ATOM      4  C   UNL     1       1.041   6.601  -0.995  1.00  0.00     0.102 A 
ATOM      5  C   UNL     1       1.833   5.579  -1.517  1.00  0.00     0.130 A 
ATOM      6  C   UNL     1       2.835   5.875  -2.442  1.00  0.00     0.048 A 
ENDROOT
BRANCH   1   7
ATOM      7  C   UNL     1       2.471   9.585  -2.739  1.00  0.00     0.018 A 
ATOM      8  C   UNL     1       1.394  10.374  -3.145  1.00  0.00     0.133 A 
ATOM      9  C   UNL     1       1.609  11.693  -3.547  1.00  0.00     0.079 A 
ATOM     10  C   UNL     1       3.761  10.114  -2.734  1.00  0.00     0.015 A 
ATOM     11  C   UNL     1       2.900  12.222  -3.542  1.00  0.00     0.126 A 
ATOM     12  C   UNL     1       3.975  11.432  -3.136  1.00  0.00     0.040 A 
ATOM     13  F   UNL     1       0.148   9.880  -3.158  1.00  0.00    -0.206 F 
ATOM     14  F   UNL     1       3.107  13.487  -3.928  1.00  0.00    -0.207 F 
ENDBRANCH   1   7
BRANCH   4  15
ATOM     15  C   UNL     1      -0.011   6.312  -0.030  1.00  0.00     0.339 C 
ATOM     16  O   UNL     1       0.108   5.583   0.958  1.00  0.00    -0.246 OA
BRANCH  15  17
ATOM     17  O   UNL     1      -1.177   6.945  -0.329  1.00  0.00    -0.478 OA
ATOM     18  H   UNL     1      -1.925   6.603   0.205  1.00  0.00     0.297 HD
ENDBRANCH  15  17
ENDBRANCH   4  15
BRANCH   5  19
ATOM     19  O   UNL     1       1.644   4.283  -1.137  1.00  0.00    -0.507 OA
ATOM     20  H   UNL     1       1.468   3.743  -1.928  1.00  0.00     0.293 HD
ENDBRANCH   5  19
TORSDOF 4
ENDMDL
MODEL 2
REMARK VINA RESULT:    -6.873      1.768      3.257
REMARK INTER + INTRA:          -8.745
REMARK INTER:                  -8.040
REMARK INTRA:                  -0.705
REMARK UNBOUND:                -0.668
REMARK SMILES O=C(O)c1cc(-c2ccc(F)cc2F)ccc1O
REMARK SMILES IDX 6 1 5 2 15 3 4 4 17 5 16 6 7 7 13 8 12 9 8 10 10 11 9 12
REMARK SMILES IDX 14 13 11 14 2 15 1 16 3 17 18 19
REMARK H PARENT 3 18 18 20
ROOT
ATOM      1  C   UNL     1       2.518   8.153  -2.248  1.00  0.00    -0.014 A 
ATOM      2  C   UNL     1       3.360   7.198  -2.817  1.00  0.00     0.028 A 
ATOM      3  C   UNL     1       1.565   7.769  -1.305  1.00  0.00     0.013 A 
ATOM      4  C   UNL     1       3.250   5.859  -2.442  1.00  0.00     0.102 A 
ATOM      5  C   UNL     1       2.297   5.475  -1.498  1.00  0.00     0.130 A 
ATOM      6  C   UNL     1       1.455   6.431  -0.929  1.00  0.00     0.048 A 
ENDROOT
BRANCH   1   7
ATOM      7  C   UNL     1       2.631   9.542  -2.638  1.00  0.00     0.018 A 
ATOM      8  C   UNL     1       3.878  10.169  -2.644  1.00  0.00     0.133 A 
ATOM      9  C   UNL     1       3.982  11.508  -3.020  1.00  0.00     0.079 A 
ATOM     10  C   UNL     1       1.490  10.254  -3.008  1.00  0.00     0.015 A 
ATOM     11  C   UNL     1       2.841  12.220  -3.389  1.00  0.00     0.126 A 
ATOM     12  C   UNL     1       1.595  11.592  -3.383  1.00  0.00     0.040 A 
ATOM     13  F   UNL     1       4.983   9.500  -2.288  1.00  0.00    -0.206 F 
ATOM     14  F   UNL     1       2.940  13.506  -3.750  1.00  0.00    -0.207 F 
ENDBRANCH   1   7
BRANCH   4  15
ATOM     15  C   UNL     1       4.140   4.877  -3.047  1.00  0.00     0.339 C 
ATOM     16  O   UNL     1       3.812   3.744  -3.407  1.00  0.00    -0.246 OA
BRANCH  15  17
ATOM     17  O   UNL     1       5.411   5.343  -3.184  1.00  0.00    -0.478 OA
ATOM     18  H   UNL     1       5.625   6.021  -2.509  1.00  0.00     0.297 HD
ENDBRANCH  15  17
ENDBRANCH   4  15
BRANCH   5  19
ATOM     19  O   UNL     1       2.174   4.172  -1.118  1.00  0.00    -0.507 OA
ATOM     20  H   UNL     1       2.681   3.613  -1.732  1.00  0.00     0.293 HD
ENDBRANCH   5  19
TORSDOF 4
ENDMDL
MODEL 3
REMARK VINA RESULT:    -6.854      1.142      1.624
REMARK INTER + INTRA:          -8.724
REMARK INTER:                  -8.083
REMARK INTRA:                  -0.641
REMARK UNBOUND:                -0.668
REMARK SMILES O=C(O)c1cc(-c2ccc(F)cc2F)ccc1O
REMARK SMILES IDX 6 1 5 2 15 3 4 4 17 5 16 6 7 7 13 8 12 9 8 10 10 11 9 12
REMARK SMILES IDX 14 13 11 14 2 15 1 16 3 17 18 19
REMARK H PARENT 3 18 18 20
ROOT
ATOM      1  C   UNL     1       2.371   8.159  -2.248  1.00  0.00    -0.014 A 
ATOM      2  C   UNL     1       1.333   7.860  -1.366  1.00  0.00     0.028 A 
ATOM      3  C   UNL     1       3.209   7.143  -2.707  1.00  0.00     0.013 A 
ATOM      4  C   UNL     1       1.133   6.546  -0.942  1.00  0.00     0.102 A 
ATOM      5  C   UNL     1       1.972   5.530  -1.401  1.00  0.00     0.130 A 
ATOM      6  C   UNL     1       3.011   5.829  -2.284  1.00  0.00     0.048 A 
ENDROOT
BRANCH   1   7
ATOM      7  C   UNL     1       2.579   9.522  -2.686  1.00  0.00     0.018 A 
ATOM      8  C   UNL     1       3.860  10.074  -2.671  1.00  0.00     0.133 A 
ATOM      9  C   UNL     1       4.057  11.389  -3.095  1.00  0.00     0.079 A 
ATOM     10  C   UNL     1       1.496  10.283  -3.126  1.00  0.00     0.015 A 
ATOM     11  C   UNL     1       2.974  12.150  -3.533  1.00  0.00     0.126 A 
ATOM     12  C   UNL     1       1.694  11.596  -3.549  1.00  0.00     0.040 A 
ATOM     13  F   UNL     1       4.912   9.357  -2.249  1.00  0.00    -0.206 F 
ATOM     14  F   UNL     1       3.162  13.412  -3.940  1.00  0.00    -0.207 F 
ENDBRANCH   1   7
BRANCH   4  15
ATOM     15  C   UNL     1       0.044   6.255  -0.021  1.00  0.00     0.339 C 
ATOM     16  O   UNL     1       0.128   5.540   0.981  1.00  0.00    -0.246 OA
BRANCH  15  17
ATOM     17  O   UNL     1      -1.117   6.868  -0.381  1.00  0.00    -0.478 OA
ATOM     18  H   UNL     1      -1.467   7.435   0.338  1.00  0.00     0.297 HD
ENDBRANCH  15  17
ENDBRANCH   4  15
BRANCH   5  19
ATOM     19  O   UNL     1       1.794   4.240  -1.000  1.00  0.00    -0.507 OA
ATOM     20  H   UNL     1       1.886   4.193  -0.033  1.00  0.00     0.293 HD
ENDBRANCH   5  19
TORSDOF 4
ENDMDL
MODEL 4
REMARK VINA RESULT:    -6.845      1.384      2.823
REMARK INTER + INTRA:          -8.713
REMARK INTER:                  -8.033
REMARK INTRA:                  -0.680
REMARK UNBOUND:                -0.668
REMARK SMILES O=C(O)c1cc(-c2ccc(F)cc2F)ccc1O
REMARK SMILES IDX 6 1 5 2 15 3 4 4 17 5 16 6 7 7 13 8 12 9 8 10 10 11 9 12
REMARK SMILES IDX 14 13 11 14 2 15 1 16 3 17 18 19
REMARK H PARENT 3 18 18 20
ROOT
ATOM      1  C   UNL     1       2.464   8.129  -2.296  1.00  0.00    -0.014 A 
ATOM      2  C   UNL     1       3.331   7.185  -2.845  1.00  0.00     0.028 A 
ATOM      3  C   UNL     1       1.487   7.732  -1.383  1.00  0.00     0.013 A 
ATOM      4  C   UNL     1       3.222   5.843  -2.481  1.00  0.00     0.102 A 
ATOM      5  C   UNL     1       2.245   5.445  -1.568  1.00  0.00     0.130 A 
ATOM      6  C   UNL     1       1.377   6.390  -1.019  1.00  0.00     0.048 A 
ENDROOT
BRANCH   1   7
ATOM      7  C   UNL     1       2.576   9.522  -2.674  1.00  0.00     0.018 A 
ATOM      8  C   UNL     1       1.438  10.242  -3.040  1.00  0.00     0.133 A 
ATOM      9  C   UNL     1       1.550  11.584  -3.404  1.00  0.00     0.079 A 
ATOM     10  C   UNL     1       3.824  10.144  -2.671  1.00  0.00     0.015 A 
ATOM     11  C   UNL     1       2.799  12.206  -3.402  1.00  0.00     0.126 A 
ATOM     12  C   UNL     1       3.935  11.485  -3.035  1.00  0.00     0.040 A 
ATOM     13  F   UNL     1       0.231   9.658  -3.051  1.00  0.00    -0.206 F 
ATOM     14  F   UNL     1       2.907  13.494  -3.751  1.00  0.00    -0.207 F 
ENDBRANCH   1   7
BRANCH   4  15
ATOM     15  C   UNL     1       4.137   4.872  -3.065  1.00  0.00     0.339 C 
ATOM     16  O   UNL     1       3.836   3.728  -3.415  1.00  0.00    -0.246 OA
BRANCH  15  17
ATOM     17  O   UNL     1       5.399   5.363  -3.195  1.00  0.00    -0.478 OA
ATOM     18  H   UNL     1       5.806   5.559  -2.325  1.00  0.00     0.297 HD
ENDBRANCH  15  17
ENDBRANCH   4  15
BRANCH   5  19
ATOM     19  O   UNL     1       2.122   4.139  -1.199  1.00  0.00    -0.507 OA
ATOM     20  H   UNL     1       1.210   3.978  -0.900  1.00  0.00     0.293 HD
ENDBRANCH   5  19
TORSDOF 4
ENDMDL
MODEL 5
REMARK VINA RESULT:    -5.347      3.994      6.266
REMARK INTER + INTRA:          -6.952
REMARK INTER:                  -5.868
REMARK INTRA:                  -1.084
REMARK UNBOUND:                -0.668
REMARK SMILES O=C(O)c1cc(-c2ccc(F)cc2F)ccc1O
REMARK SMILES IDX 6 1 5 2 15 3 4 4 17 5 16 6 7 7 13 8 12 9 8 10 10 11 9 12
REMARK SMILES IDX 14 13 11 14 2 15 1 16 3 17 18 19
REMARK H PARENT 3 18 18 20
ROOT
ATOM      1  C   UNL     1       2.453  10.669  -2.923  1.00  0.00    -0.014 A 
ATOM      2  C   UNL     1       2.242  11.773  -2.097  1.00  0.00     0.028 A 
ATOM      3  C   UNL     1       2.937  10.850  -4.218  1.00  0.00     0.013 A 
ATOM      4  C   UNL     1       2.516  13.058  -2.567  1.00  0.00     0.102 A 
ATOM      5  C   UNL     1       3.000  13.238  -3.862  1.00  0.00     0.130 A 
ATOM      6  C   UNL     1       3.211  12.134  -4.689  1.00  0.00     0.048 A 
ENDROOT
BRANCH   1   7
ATOM      7  C   UNL     1       2.168   9.336  -2.437  1.00  0.00     0.018 A 
ATOM      8  C   UNL     1       0.887   8.799  -2.575  1.00  0.00     0.133 A 
ATOM      9  C   UNL     1       0.617   7.514  -2.105  1.00  0.00     0.079 A 
ATOM     10  C   UNL     1       3.176   8.588  -1.831  1.00  0.00     0.015 A 
ATOM     11  C   UNL     1       1.625   6.766  -1.498  1.00  0.00     0.126 A 
ATOM     12  C   UNL     1       2.905   7.303  -1.362  1.00  0.00     0.040 A 
ATOM     13  F   UNL     1      -0.095   9.506  -3.152  1.00  0.00    -0.206 F 
ATOM     14  F   UNL     1       1.366   5.532  -1.047  1.00  0.00    -0.207 F 
ENDBRANCH   1   7
BRANCH   4  15
ATOM     15  C   UNL     1       2.290  14.198  -1.688  1.00  0.00     0.339 C 
ATOM     16  O   UNL     1       2.577  15.368  -1.950  1.00  0.00    -0.246 OA
BRANCH  15  17
ATOM     17  O   UNL     1       1.710  13.838  -0.511  1.00  0.00    -0.478 OA
ATOM     18  H   UNL     1       1.798  12.876  -0.341  1.00  0.00     0.297 HD
ENDBRANCH  15  17
ENDBRANCH   4  15
BRANCH   5  19
ATOM     19  O   UNL     1       3.274  14.485  -4.340  1.00  0.00    -0.507 OA
ATOM     20  H   UNL     1       2.559  15.090  -4.078  1.00  0.00     0.293 HD
ENDBRANCH   5  19
TORSDOF 4
ENDMDL
MODEL 6
REMARK VINA RESULT:    -5.345      4.581      6.907
REMARK INTER + INTRA:          -6.950
REMARK INTER:                  -5.866
REMARK INTRA:                  -1.084
REMARK UNBOUND:                -0.668
REMARK SMILES O=C(O)c1cc(-c2ccc(F)cc2F)ccc1O
REMARK SMILES IDX 6 1 5 2 15 3 4 4 17 5 16 6 7 7 13 8 12 9 8 10 10 11 9 12
REMARK SMILES IDX 14 13 11 14 2 15 1 16 3 17 18 19
REMARK H PARENT 3 18 18 20
ROOT
ATOM      1  C   UNL     1       2.912  10.559  -3.061  1.00  0.00    -0.014 A 
ATOM      2  C   UNL     1       3.298  10.977  -4.334  1.00  0.00     0.028 A 
ATOM      3  C   UNL     1       2.553  11.501  -2.097  1.00  0.00     0.013 A 
ATOM      4  C   UNL     1       3.326  12.337  -4.644  1.00  0.00     0.102 A 
ATOM      5  C   UNL     1       2.967  13.279  -3.680  1.00  0.00     0.130 A 
ATOM      6  C   UNL     1       2.580  12.861  -2.406  1.00  0.00     0.048 A 
ENDROOT
BRANCH   1   7
ATOM      7  C   UNL     1       2.885   9.149  -2.738  1.00  0.00     0.018 A 
ATOM      8  C   UNL     1       4.033   8.517  -2.260  1.00  0.00     0.133 A 
ATOM      9  C   UNL     1       4.002   7.157  -1.950  1.00  0.00     0.079 A 
ATOM     10  C   UNL     1       1.706   8.422  -2.905  1.00  0.00     0.015 A 
ATOM     11  C   UNL     1       2.825   6.430  -2.118  1.00  0.00     0.126 A 
ATOM     12  C   UNL     1       1.676   7.063  -2.595  1.00  0.00     0.040 A 
ATOM     13  F   UNL     1       5.174   9.201  -2.096  1.00  0.00    -0.206 F 
ATOM     14  F   UNL     1       2.794   5.125  -1.821  1.00  0.00    -0.207 F 
ENDBRANCH   1   7
BRANCH   4  15
ATOM     15  C   UNL     1       3.731  12.753  -5.979  1.00  0.00     0.339 C 
ATOM     16  O   UNL     1       3.710  13.910  -6.404  1.00  0.00    -0.246 OA
BRANCH  15  17
ATOM     17  O   UNL     1       4.153  11.707  -6.742  1.00  0.00    -0.478 OA
ATOM     18  H   UNL     1       3.834  10.849  -6.392  1.00  0.00     0.297 HD
ENDBRANCH  15  17
ENDBRANCH   4  15
BRANCH   5  19
ATOM     19  O   UNL     1       2.986  14.612  -3.963  1.00  0.00    -0.507 OA
ATOM     20  H   UNL     1       2.530  15.094  -3.251  1.00  0.00     0.293 HD
ENDBRANCH   5  19
TORSDOF 4
ENDMDL
MODEL 7
REMARK VINA RESULT:    -5.334      1.121      1.268
REMARK INTER + INTRA:          -6.937
REMARK INTER:                  -6.451
REMARK INTRA:                  -0.486
REMARK UNBOUND:                -0.668
REMARK SMILES O=C(O)c1cc(-c2ccc(F)cc2F)ccc1O
REMARK SMILES IDX 6 1 5 2 15 3 4 4 17 5 16 6 7 7 13 8 12 9 8 10 10 11 9 12
REMARK SMILES IDX 14 13 11 14 2 15 1 16 3 17 18 19
REMARK H PARENT 3 18 18 20
ROOT
ATOM      1  C   UNL     1       2.288   8.549  -2.207  1.00  0.00    -0.014 A 
ATOM      2  C   UNL     1       1.208   8.212  -1.392  1.00  0.00     0.028 A 
ATOM      3  C   UNL     1       3.188   7.564  -2.614  1.00  0.00     0.013 A 
ATOM      4  C   UNL     1       1.028   6.890  -0.983  1.00  0.00     0.102 A 
ATOM      5  C   UNL     1       1.928   5.906  -1.391  1.00  0.00     0.130 A 
ATOM      6  C   UNL     1       3.009   6.243  -2.207  1.00  0.00     0.048 A 
ENDROOT
BRANCH   1   7
ATOM      7  C   UNL     1       2.477   9.920  -2.630  1.00  0.00     0.018 A 
ATOM      8  C   UNL     1       2.961  10.198  -3.908  1.00  0.00     0.133 A 
ATOM      9  C   UNL     1       3.141  11.521  -4.312  1.00  0.00     0.079 A 
ATOM     10  C   UNL     1       2.172  10.964  -1.757  1.00  0.00     0.015 A 
ATOM     11  C   UNL     1       2.837  12.565  -3.439  1.00  0.00     0.126 A 
ATOM     12  C   UNL     1       2.352  12.286  -2.161  1.00  0.00     0.040 A 
ATOM     13  F   UNL     1       3.262   9.206  -4.759  1.00  0.00    -0.206 F 
ATOM     14  F   UNL     1       3.010  13.835  -3.825  1.00  0.00    -0.207 F 
ENDBRANCH   1   7
BRANCH   4  15
ATOM     15  C   UNL     1      -0.106   6.558  -0.132  1.00  0.00     0.339 C 
ATOM     16  O   UNL     1      -0.064   5.828   0.861  1.00  0.00    -0.246 OA
BRANCH  15  17
ATOM     17  O   UNL     1      -1.258   7.152  -0.549  1.00  0.00    -0.478 OA
ATOM     18  H   UNL     1      -1.657   6.680  -1.309  1.00  0.00     0.297 HD
ENDBRANCH  15  17
ENDBRANCH   4  15
BRANCH   5  19
ATOM     19  O   UNL     1       1.769   4.608  -1.003  1.00  0.00    -0.507 OA
ATOM     20  H   UNL     1       2.339   4.041  -1.552  1.00  0.00     0.293 HD
ENDBRANCH   5  19
TORSDOF 4
ENDMDL
MODEL 8
REMARK VINA RESULT:    -5.280      4.105      6.405
REMARK INTER + INTRA:          -6.873
REMARK INTER:                  -5.801
REMARK INTRA:                  -1.072
REMARK UNBOUND:                -0.668
REMARK SMILES O=C(O)c1cc(-c2ccc(F)cc2F)ccc1O
REMARK SMILES IDX 6 1 5 2 15 3 4 4 17 5 16 6 7 7 13 8 12 9 8 10 10 11 9 12
REMARK SMILES IDX 14 13 11 14 2 15 1 16 3 17 18 19
REMARK H PARENT 3 18 18 20
ROOT
ATOM      1  C   UNL     1       2.848  10.630  -3.018  1.00  0.00    -0.014 A 
ATOM      2  C   UNL     1       2.481  11.600  -2.087  1.00  0.00     0.028 A 
ATOM      3  C   UNL     1       3.279  11.010  -4.289  1.00  0.00     0.013 A 
ATOM      4  C   UNL     1       2.544  12.952  -2.426  1.00  0.00     0.102 A 
ATOM      5  C   UNL     1       2.976  13.333  -3.697  1.00  0.00     0.130 A 
ATOM      6  C   UNL     1       3.343  12.361  -4.629  1.00  0.00     0.048 A 
ENDROOT
BRANCH   1   7
ATOM      7  C   UNL     1       2.781   9.227  -2.667  1.00  0.00     0.018 A 
ATOM      8  C   UNL     1       3.922   8.562  -2.218  1.00  0.00     0.133 A 
ATOM      9  C   UNL     1       3.853   7.210  -1.881  1.00  0.00     0.079 A 
ATOM     10  C   UNL     1       1.572   8.541  -2.778  1.00  0.00     0.015 A 
ATOM     11  C   UNL     1       2.644   6.524  -1.993  1.00  0.00     0.126 A 
ATOM     12  C   UNL     1       1.503   7.190  -2.441  1.00  0.00     0.040 A 
ATOM     13  F   UNL     1       5.092   9.206  -2.108  1.00  0.00    -0.206 F 
ATOM     14  F   UNL     1       2.577   5.226  -1.670  1.00  0.00    -0.207 F 
ENDBRANCH   1   7
BRANCH   4  15
ATOM     15  C   UNL     1       2.157  13.951  -1.439  1.00  0.00     0.339 C 
ATOM     16  O   UNL     1       2.022  15.157  -1.659  1.00  0.00    -0.246 OA
BRANCH  15  17
ATOM     17  O   UNL     1       1.949  13.409  -0.208  1.00  0.00    -0.478 OA
ATOM     18  H   UNL     1       1.134  13.757   0.210  1.00  0.00     0.297 HD
ENDBRANCH  15  17
ENDBRANCH   4  15
BRANCH   5  19
ATOM     19  O   UNL     1       3.046  14.648  -4.048  1.00  0.00    -0.507 OA
ATOM     20  H   UNL     1       2.166  14.947  -4.336  1.00  0.00     0.293 HD
ENDBRANCH   5  19
TORSDOF 4
ENDMDL
MODEL 9
REMARK VINA RESULT:    -5.277      4.323      6.651
REMARK INTER + INTRA:          -6.871
REMARK INTER:                  -5.800
REMARK INTRA:                  -1.070
REMARK UNBOUND:                -0.668
REMARK SMILES O=C(O)c1cc(-c2ccc(F)cc2F)ccc1O
REMARK SMILES IDX 6 1 5 2 15 3 4 4 17 5 16 6 7 7 13 8 12 9 8 10 10 11 9 12
REMARK SMILES IDX 14 13 11 14 2 15 1 16 3 17 18 19
REMARK H PARENT 3 18 18 20
ROOT
ATOM      1  C   UNL     1       2.489  10.672  -2.957  1.00  0.00    -0.014 A 
ATOM      2  C   UNL     1       3.022  10.878  -4.229  1.00  0.00     0.028 A 
ATOM      3  C   UNL     1       2.208  11.762  -2.134  1.00  0.00     0.013 A 
ATOM      4  C   UNL     1       3.275  12.174  -4.679  1.00  0.00     0.102 A 
ATOM      5  C   UNL     1       2.994  13.264  -3.855  1.00  0.00     0.130 A 
ATOM      6  C   UNL     1       2.460  13.058  -2.583  1.00  0.00     0.048 A 
ENDROOT
BRANCH   1   7
ATOM      7  C   UNL     1       2.227   9.327  -2.490  1.00  0.00     0.018 A 
ATOM      8  C   UNL     1       0.947   8.784  -2.601  1.00  0.00     0.133 A 
ATOM      9  C   UNL     1       0.699   7.487  -2.149  1.00  0.00     0.079 A 
ATOM     10  C   UNL     1       3.259   8.575  -1.929  1.00  0.00     0.015 A 
ATOM     11  C   UNL     1       1.731   6.735  -1.587  1.00  0.00     0.126 A 
ATOM     12  C   UNL     1       3.011   7.279  -1.478  1.00  0.00     0.040 A 
ATOM     13  F   UNL     1      -0.056   9.495  -3.135  1.00  0.00    -0.206 F 
ATOM     14  F   UNL     1       1.494   5.491  -1.153  1.00  0.00    -0.207 F 
ENDBRANCH   1   7
BRANCH   4  15
ATOM     15  C   UNL     1       3.832  12.368  -6.010  1.00  0.00     0.339 C 
ATOM     16  O   UNL     1       4.309  13.422  -6.438  1.00  0.00    -0.246 OA
BRANCH  15  17
ATOM     17  O   UNL     1       3.777  11.236  -6.764  1.00  0.00    -0.478 OA
ATOM     18  H   UNL     1       2.854  10.959  -6.938  1.00  0.00     0.297 HD
ENDBRANCH  15  17
ENDBRANCH   4  15
BRANCH   5  19
ATOM     19  O   UNL     1       3.233  14.539  -4.276  1.00  0.00    -0.507 OA
ATOM     20  H   UNL     1       3.341  15.114  -3.499  1.00  0.00     0.293 HD
ENDBRANCH   5  19
TORSDOF 4
ENDMDL
