MODEL 1
REMARK VINA RESULT:    -7.033      0.000      0.000
REMARK INTER + INTRA:          -8.911
REMARK INTER:                  -8.266
REMARK INTRA:                  -0.644
REMARK UNBOUND:                -0.644
REMARK SMILES O=C(O)c1cc(-c2ccc(F)cc2F)ccc1O
REMARK SMILES IDX 6 1 5 2 15 3 4 4 17 5 16 6 7 7 13 8 12 9 8 10 10 11 9 12
REMARK SMILES IDX 14 13 11 14 2 15 1 16 3 17 18 19
REMARK H PARENT 3 18 18 20
ROOT
ATOM      1  C   UNL     1      -0.747   7.938  -3.021  1.00  0.00    -0.014 A 
ATOM      2  C   UNL     1      -0.136   8.015  -1.770  1.00  0.00     0.028 A 
ATOM      3  C   UNL     1      -0.758   6.730  -3.719  1.00  0.00     0.013 A 
ATOM      4  C   UNL     1       0.465   6.884  -1.216  1.00  0.00     0.102 A 
ATOM      5  C   UNL     1       0.455   5.677  -1.914  1.00  0.00     0.130 A 
ATOM      6  C   UNL     1      -0.157   5.599  -3.166  1.00  0.00     0.048 A 
ENDROOT
BRANCH   1   7
ATOM      7  C   UNL     1      -1.370   9.110  -3.597  1.00  0.00     0.018 A 
ATOM      8  C   UNL     1      -2.216   9.906  -2.823  1.00  0.00     0.133 A 
ATOM      9  C   UNL     1      -2.814  11.035  -3.382  1.00  0.00     0.079 A 
ATOM     10  C   UNL     1      -1.122   9.445  -4.928  1.00  0.00     0.015 A 
ATOM     11  C   UNL     1      -2.567  11.369  -4.713  1.00  0.00     0.126 A 
ATOM     12  C   UNL     1      -1.720  10.574  -5.485  1.00  0.00     0.040 A 
ATOM     13  F   UNL     1      -2.467   9.596  -1.543  1.00  0.00    -0.206 F 
ATOM     14  F   UNL     1      -3.141  12.453  -5.250  1.00  0.00    -0.207 F 
ENDBRANCH   1   7
BRANCH   4  15
ATOM     15  C   UNL     1       1.098   6.986   0.092  1.00  0.00     0.339 C 
ATOM     16  O   UNL     1       2.204   6.527   0.387  1.00  0.00    -0.246 OA
BRANCH  15  17
ATOM     17  O   UNL     1       0.328   7.659   0.990  1.00  0.00    -0.478 OA
ATOM     18  H   UNL     1      -0.514   7.190   1.172  1.00  0.00     0.297 HD
ENDBRANCH  15  17
ENDBRANCH   4  15
BRANCH   5  19
ATOM     19  O   UNL     1       1.036   4.560  -1.390  1.00  0.00    -0.507 OA
ATOM     20  H   UNL     1       0.679   3.776  -1.841  1.00  0.00     0.293 HD
ENDBRANCH   5  19
TORSDOF 4
ENDMDL
MODEL 2
REMARK VINA RESULT:    -7.026      1.126      1.606
REMARK INTER + INTRA:          -8.902
REMARK INTER:                  -8.249
REMARK INTRA:                  -0.653
REMARK UNBOUND:                -0.644
REMARK SMILES O=C(O)c1cc(-c2ccc(F)cc2F)ccc1O
REMARK SMILES IDX 6 1 5 2 15 3 4 4 17 5 16 6 7 7 13 8 12 9 8 10 10 11 9 12
REMARK SMILES IDX 14 13 11 14 2 15 1 16 3 17 18 19
REMARK H PARENT 3 18 18 20
ROOT
ATOM      1  C   UNL     1      -0.720   7.919  -3.042  1.00  0.00    -0.014 A 
ATOM      2  C   UNL     1      -0.117   8.003  -1.787  1.00  0.00     0.028 A 
ATOM      3  C   UNL     1      -0.727   6.707  -3.733  1.00  0.00     0.013 A 
ATOM      4  C   UNL     1       0.479   6.875  -1.223  1.00  0.00     0.102 A 
ATOM      5  C   UNL     1       0.472   5.663  -1.914  1.00  0.00     0.130 A 
ATOM      6  C   UNL     1      -0.131   5.579  -3.170  1.00  0.00     0.048 A 
ENDROOT
BRANCH   1   7
ATOM      7  C   UNL     1      -1.337   9.089  -3.628  1.00  0.00     0.018 A 
ATOM      8  C   UNL     1      -1.060   9.439  -4.950  1.00  0.00     0.133 A 
ATOM      9  C   UNL     1      -1.657  10.568  -5.511  1.00  0.00     0.079 A 
ATOM     10  C   UNL     1      -2.213   9.866  -2.870  1.00  0.00     0.015 A 
ATOM     11  C   UNL     1      -2.532  11.345  -4.753  1.00  0.00     0.126 A 
ATOM     12  C   UNL     1      -2.810  10.993  -3.432  1.00  0.00     0.040 A 
ATOM     13  F   UNL     1      -0.219   8.705  -5.692  1.00  0.00    -0.206 F 
ATOM     14  F   UNL     1      -3.105  12.429  -5.291  1.00  0.00    -0.207 F 
ENDBRANCH   1   7
BRANCH   4  15
ATOM     15  C   UNL     1       1.103   6.983   0.089  1.00  0.00     0.339 C 
ATOM     16  O   UNL     1       2.208   6.526   0.393  1.00  0.00    -0.246 OA
BRANCH  15  17
ATOM     17  O   UNL     1       0.327   7.660   0.978  1.00  0.00    -0.478 OA
ATOM     18  H   UNL     1      -0.209   7.053   1.530  1.00  0.00     0.297 HD
ENDBRANCH  15  17
ENDBRANCH   4  15
BRANCH   5  19
ATOM     19  O   UNL     1       1.049   4.549  -1.380  1.00  0.00    -0.507 OA
ATOM     20  H   UNL     1       1.844   4.810  -0.884  1.00  0.00     0.293 HD
ENDBRANCH   5  19
TORSDOF 4
ENDMDL
MODEL 3
REMARK VINA RESULT:    -6.976      1.270      2.732
REMARK INTER + INTRA:          -8.843
REMARK INTER:                  -8.261
REMARK INTRA:                  -0.582
REMARK UNBOUND:                -0.644
REMARK SMILES O=C(O)c1cc(-c2ccc(F)cc2F)ccc1O
REMARK SMILES IDX 6 1 5 2 15 3 4 4 17 5 16 6 7 7 13 8 12 9 8 10 10 11 9 12
REMARK SMILES IDX 14 13 11 14 2 15 1 16 3 17 18 19
REMARK H PARENT 3 18 18 20
ROOT
ATOM      1  C   UNL     1      -0.682   7.904  -3.010  1.00  0.00    -0.014 A 
ATOM      2  C   UNL     1      -0.691   6.738  -3.774  1.00  0.00     0.028 A 
ATOM      3  C   UNL     1      -0.070   7.911  -1.756  1.00  0.00     0.013 A 
ATOM      4  C   UNL     1      -0.089   5.578  -3.285  1.00  0.00     0.102 A 
ATOM      5  C   UNL     1       0.522   5.585  -2.031  1.00  0.00     0.130 A 
ATOM      6  C   UNL     1       0.531   6.752  -1.266  1.00  0.00     0.048 A 
ENDROOT
BRANCH   1   7
ATOM      7  C   UNL     1      -1.307   9.107  -3.516  1.00  0.00     0.018 A 
ATOM      8  C   UNL     1      -2.156   9.853  -2.697  1.00  0.00     0.133 A 
ATOM      9  C   UNL     1      -2.756  11.012  -3.189  1.00  0.00     0.079 A 
ATOM     10  C   UNL     1      -1.058   9.521  -4.824  1.00  0.00     0.015 A 
ATOM     11  C   UNL     1      -2.508  11.425  -4.498  1.00  0.00     0.126 A 
ATOM     12  C   UNL     1      -1.658  10.680  -5.315  1.00  0.00     0.040 A 
ATOM     13  F   UNL     1      -2.407   9.468  -1.438  1.00  0.00    -0.206 F 
ATOM     14  F   UNL     1      -3.084  12.538  -4.971  1.00  0.00    -0.207 F 
ENDBRANCH   1   7
BRANCH   4  15
ATOM     15  C   UNL     1      -0.110   4.370  -4.099  1.00  0.00     0.339 C 
ATOM     16  O   UNL     1      -0.526   3.269  -3.732  1.00  0.00    -0.246 OA
BRANCH  15  17
ATOM     17  O   UNL     1       0.390   4.579  -5.348  1.00  0.00    -0.478 OA
ATOM     18  H   UNL     1       0.065   3.910  -5.987  1.00  0.00     0.297 HD
ENDBRANCH  15  17
ENDBRANCH   4  15
BRANCH   5  19
ATOM     19  O   UNL     1       1.116   4.463  -1.536  1.00  0.00    -0.507 OA
ATOM     20  H   UNL     1       1.176   4.537  -0.567  1.00  0.00     0.293 HD
ENDBRANCH   5  19
TORSDOF 4
ENDMDL
MODEL 4
REMARK VINA RESULT:    -6.971      1.673      3.165
REMARK INTER + INTRA:          -8.837
REMARK INTER:                  -8.261
REMARK INTRA:                  -0.576
REMARK UNBOUND:                -0.644
REMARK SMILES O=C(O)c1cc(-c2ccc(F)cc2F)ccc1O
REMARK SMILES IDX 6 1 5 2 15 3 4 4 17 5 16 6 7 7 13 8 12 9 8 10 10 11 9 12
REMARK SMILES IDX 14 13 11 14 2 15 1 16 3 17 18 19
REMARK H PARENT 3 18 18 20
ROOT
ATOM      1  C   UNL     1      -0.670   7.910  -3.040  1.00  0.00    -0.014 A 
ATOM      2  C   UNL     1      -0.682   6.739  -3.796  1.00  0.00     0.028 A 
ATOM      3  C   UNL     1      -0.062   7.923  -1.784  1.00  0.00     0.013 A 
ATOM      4  C   UNL     1      -0.086   5.580  -3.298  1.00  0.00     0.102 A 
ATOM      5  C   UNL     1       0.522   5.593  -2.043  1.00  0.00     0.130 A 
ATOM      6  C   UNL     1       0.534   6.765  -1.285  1.00  0.00     0.048 A 
ENDROOT
BRANCH   1   7
ATOM      7  C   UNL     1      -1.289   9.112  -3.555  1.00  0.00     0.018 A 
ATOM      8  C   UNL     1      -1.063   9.506  -4.875  1.00  0.00     0.133 A 
ATOM      9  C   UNL     1      -1.662  10.666  -5.367  1.00  0.00     0.079 A 
ATOM     10  C   UNL     1      -2.113   9.877  -2.730  1.00  0.00     0.015 A 
ATOM     11  C   UNL     1      -2.485  11.431  -4.542  1.00  0.00     0.126 A 
ATOM     12  C   UNL     1      -2.711  11.036  -3.224  1.00  0.00     0.040 A 
ATOM     13  F   UNL     1      -0.271   8.784  -5.680  1.00  0.00    -0.206 F 
ATOM     14  F   UNL     1      -3.060  12.544  -5.014  1.00  0.00    -0.207 F 
ENDBRANCH   1   7
BRANCH   4  15
ATOM     15  C   UNL     1      -0.109   4.368  -4.104  1.00  0.00     0.339 C 
ATOM     16  O   UNL     1      -0.527   3.269  -3.730  1.00  0.00    -0.246 OA
BRANCH  15  17
ATOM     17  O   UNL     1       0.391   4.567  -5.354  1.00  0.00    -0.478 OA
ATOM     18  H   UNL     1      -0.315   4.779  -6.000  1.00  0.00     0.297 HD
ENDBRANCH  15  17
ENDBRANCH   4  15
BRANCH   5  19
ATOM     19  O   UNL     1       1.110   4.472  -1.538  1.00  0.00    -0.507 OA
ATOM     20  H   UNL     1       1.203   3.815  -2.250  1.00  0.00     0.293 HD
ENDBRANCH   5  19
TORSDOF 4
ENDMDL
MODEL 5
REMARK VINA RESULT:    -5.453      4.558      6.908
REMARK INTER + INTRA:          -7.054
REMARK INTER:                  -5.975
REMARK INTRA:                  -1.079
REMARK UNBOUND:                -0.644
REMARK SMILES O=C(O)c1cc(-c2ccc(F)cc2F)ccc1O
REMARK SMILES IDX 6 1 5 2 15 3 4 4 17 5 16 6 7 7 13 8 12 9 8 10 10 11 9 12
REMARK SMILES IDX 14 13 11 14 2 15 1 16 3 17 18 19
REMARK H PARENT 3 18 18 20
ROOT
ATOM      1  C   UNL     1      -1.806  10.031  -4.178  1.00  0.00    -0.014 A 
ATOM      2  C   UNL     1      -2.973  10.015  -4.942  1.00  0.00     0.028 A 
ATOM      3  C   UNL     1      -1.212  11.246  -3.839  1.00  0.00     0.013 A 
ATOM      4  C   UNL     1      -3.545  11.214  -5.367  1.00  0.00     0.102 A 
ATOM      5  C   UNL     1      -2.951  12.429  -5.027  1.00  0.00     0.130 A 
ATOM      6  C   UNL     1      -1.783  12.445  -4.263  1.00  0.00     0.048 A 
ENDROOT
BRANCH   1   7
ATOM      7  C   UNL     1      -1.211   8.787  -3.739  1.00  0.00     0.018 A 
ATOM      8  C   UNL     1      -0.329   8.099  -4.573  1.00  0.00     0.133 A 
ATOM      9  C   UNL     1       0.242   6.900  -4.145  1.00  0.00     0.079 A 
ATOM     10  C   UNL     1      -1.520   8.277  -2.478  1.00  0.00     0.015 A 
ATOM     11  C   UNL     1      -0.068   6.390  -2.885  1.00  0.00     0.126 A 
ATOM     12  C   UNL     1      -0.949   7.079  -2.051  1.00  0.00     0.040 A 
ATOM     13  F   UNL     1      -0.024   8.574  -5.789  1.00  0.00    -0.206 F 
ATOM     14  F   UNL     1       0.480   5.240  -2.473  1.00  0.00    -0.207 F 
ENDBRANCH   1   7
BRANCH   4  15
ATOM     15  C   UNL     1      -4.764  11.176  -6.163  1.00  0.00     0.339 C 
ATOM     16  O   UNL     1      -5.432  12.159  -6.493  1.00  0.00    -0.246 OA
BRANCH  15  17
ATOM     17  O   UNL     1      -5.108   9.910  -6.524  1.00  0.00    -0.478 OA
ATOM     18  H   UNL     1      -4.618   9.237  -6.006  1.00  0.00     0.297 HD
ENDBRANCH  15  17
ENDBRANCH   4  15
BRANCH   5  19
ATOM     19  O   UNL     1      -3.494  13.612  -5.432  1.00  0.00    -0.507 OA
ATOM     20  H   UNL     1      -3.022  13.924  -6.223  1.00  0.00     0.293 HD
ENDBRANCH   5  19
TORSDOF 4
ENDMDL
MODEL 6
REMARK VINA RESULT:    -5.440      4.011      6.296
REMARK INTER + INTRA:          -7.038
REMARK INTER:                  -5.955
REMARK INTRA:                  -1.083
REMARK UNBOUND:                -0.644
REMARK SMILES O=C(O)c1cc(-c2ccc(F)cc2F)ccc1O
REMARK SMILES IDX 6 1 5 2 15 3 4 4 17 5 16 6 7 7 13 8 12 9 8 10 10 11 9 12
REMARK SMILES IDX 14 13 11 14 2 15 1 16 3 17 18 19
REMARK H PARENT 3 18 18 20
ROOT
ATOM      1  C   UNL     1      -1.846  10.181  -3.833  1.00  0.00    -0.014 A 
ATOM      2  C   UNL     1      -1.339  11.468  -3.655  1.00  0.00     0.028 A 
ATOM      3  C   UNL     1      -2.967   9.979  -4.638  1.00  0.00     0.013 A 
ATOM      4  C   UNL     1      -1.952  12.553  -4.281  1.00  0.00     0.102 A 
ATOM      5  C   UNL     1      -3.073  12.350  -5.087  1.00  0.00     0.130 A 
ATOM      6  C   UNL     1      -3.581  11.063  -5.265  1.00  0.00     0.048 A 
ENDROOT
BRANCH   1   7
ATOM      7  C   UNL     1      -1.212   9.055  -3.182  1.00  0.00     0.018 A 
ATOM      8  C   UNL     1      -1.580   8.697  -1.884  1.00  0.00     0.133 A 
ATOM      9  C   UNL     1      -0.965   7.611  -1.260  1.00  0.00     0.079 A 
ATOM     10  C   UNL     1      -0.231   8.327  -3.854  1.00  0.00     0.015 A 
ATOM     11  C   UNL     1       0.016   6.884  -1.933  1.00  0.00     0.126 A 
ATOM     12  C   UNL     1       0.383   7.242  -3.230  1.00  0.00     0.040 A 
ATOM     13  F   UNL     1      -2.519   9.388  -1.223  1.00  0.00    -0.206 F 
ATOM     14  F   UNL     1       0.606   5.841  -1.335  1.00  0.00    -0.207 F 
ENDBRANCH   1   7
BRANCH   4  15
ATOM     15  C   UNL     1      -1.406  13.888  -4.083  1.00  0.00     0.339 C 
ATOM     16  O   UNL     1      -1.788  14.909  -4.662  1.00  0.00    -0.246 OA
BRANCH  15  17
ATOM     17  O   UNL     1      -0.401  13.907  -3.166  1.00  0.00    -0.478 OA
ATOM     18  H   UNL     1       0.475  14.028  -3.587  1.00  0.00     0.297 HD
ENDBRANCH  15  17
ENDBRANCH   4  15
BRANCH   5  19
ATOM     19  O   UNL     1      -3.686  13.397  -5.708  1.00  0.00    -0.507 OA
ATOM     20  H   UNL     1      -3.977  14.039  -5.037  1.00  0.00     0.293 HD
ENDBRANCH   5  19
TORSDOF 4
ENDMDL
MODEL 7
REMARK VINA RESULT:    -5.386      4.114      6.427
REMARK INTER + INTRA:          -6.975
REMARK INTER:                  -5.906
REMARK INTRA:                  -1.069
REMARK UNBOUND:                -0.644
REMARK SMILES O=C(O)c1cc(-c2ccc(F)cc2F)ccc1O
REMARK SMILES IDX 6 1 5 2 15 3 4 4 17 5 16 6 7 7 13 8 12 9 8 10 10 11 9 12
REMARK SMILES IDX 14 13 11 14 2 15 1 16 3 17 18 19
REMARK H PARENT 3 18 18 20
ROOT
ATOM      1  C   UNL     1      -1.800  10.055  -4.136  1.00  0.00    -0.014 A 
ATOM      2  C   UNL     1      -1.235  11.281  -3.790  1.00  0.00     0.028 A 
ATOM      3  C   UNL     1      -2.943  10.013  -4.935  1.00  0.00     0.013 A 
ATOM      4  C   UNL     1      -1.812  12.468  -4.243  1.00  0.00     0.102 A 
ATOM      5  C   UNL     1      -2.955  12.427  -5.042  1.00  0.00     0.130 A 
ATOM      6  C   UNL     1      -3.520  11.199  -5.389  1.00  0.00     0.048 A 
ENDROOT
BRANCH   1   7
ATOM      7  C   UNL     1      -1.203   8.823  -3.665  1.00  0.00     0.018 A 
ATOM      8  C   UNL     1      -0.329   8.110  -4.487  1.00  0.00     0.133 A 
ATOM      9  C   UNL     1       0.244   6.923  -4.029  1.00  0.00     0.079 A 
ATOM     10  C   UNL     1      -1.500   8.352  -2.387  1.00  0.00     0.015 A 
ATOM     11  C   UNL     1      -0.055   6.451  -2.752  1.00  0.00     0.126 A 
ATOM     12  C   UNL     1      -0.927   7.166  -1.931  1.00  0.00     0.040 A 
ATOM     13  F   UNL     1      -0.035   8.548  -5.719  1.00  0.00    -0.206 F 
ATOM     14  F   UNL     1       0.496   5.312  -2.312  1.00  0.00    -0.207 F 
ENDBRANCH   1   7
BRANCH   4  15
ATOM     15  C   UNL     1      -1.207  13.739  -3.871  1.00  0.00     0.339 C 
ATOM     16  O   UNL     1      -1.671  14.853  -4.127  1.00  0.00    -0.246 OA
BRANCH  15  17
ATOM     17  O   UNL     1      -0.040  13.578  -3.190  1.00  0.00    -0.478 OA
ATOM     18  H   UNL     1       0.607  14.283  -3.402  1.00  0.00     0.297 HD
ENDBRANCH  15  17
ENDBRANCH   4  15
BRANCH   5  19
ATOM     19  O   UNL     1      -3.534  13.575  -5.496  1.00  0.00    -0.507 OA
ATOM     20  H   UNL     1      -3.856  14.089  -4.736  1.00  0.00     0.293 HD
ENDBRANCH   5  19
TORSDOF 4
ENDMDL
MODEL 8
REMARK VINA RESULT:    -4.764      1.503      1.798
REMARK INTER + INTRA:          -6.244
REMARK INTER:                  -5.306
REMARK INTRA:                  -0.938
REMARK UNBOUND:                -0.644
REMARK SMILES O=C(O)c1cc(-c2ccc(F)cc2F)ccc1O
REMARK SMILES IDX 6 1 5 2 15 3 4 4 17 5 16 6 7 7 13 8 12 9 8 10 10 11 9 12
REMARK SMILES IDX 14 13 11 14 2 15 1 16 3 17 18 19
REMARK H PARENT 3 18 18 20
ROOT
ATOM      1  C   UNL     1      -1.091   9.019  -3.738  1.00  0.00    -0.014 A 
ATOM      2  C   UNL     1      -1.042   8.844  -2.355  1.00  0.00     0.028 A 
ATOM      3  C   UNL     1      -0.386   8.156  -4.576  1.00  0.00     0.013 A 
ATOM      4  C   UNL     1      -0.286   7.805  -1.810  1.00  0.00     0.102 A 
ATOM      5  C   UNL     1       0.420   6.942  -2.649  1.00  0.00     0.130 A 
ATOM      6  C   UNL     1       0.370   7.118  -4.032  1.00  0.00     0.048 A 
ENDROOT
BRANCH   1   7
ATOM      7  C   UNL     1      -1.874  10.097  -4.304  1.00  0.00     0.018 A 
ATOM      8  C   UNL     1      -1.511  11.424  -4.070  1.00  0.00     0.133 A 
ATOM      9  C   UNL     1      -2.268  12.460  -4.617  1.00  0.00     0.079 A 
ATOM     10  C   UNL     1      -2.992   9.807  -5.085  1.00  0.00     0.015 A 
ATOM     11  C   UNL     1      -3.387  12.170  -5.397  1.00  0.00     0.126 A 
ATOM     12  C   UNL     1      -3.748  10.843  -5.632  1.00  0.00     0.040 A 
ATOM     13  F   UNL     1      -0.441  11.720  -3.319  1.00  0.00    -0.206 F 
ATOM     14  F   UNL     1      -4.114  13.164  -5.923  1.00  0.00    -0.207 F 
ENDBRANCH   1   7
BRANCH   4  15
ATOM     15  C   UNL     1      -0.247   7.639  -0.364  1.00  0.00     0.339 C 
ATOM     16  O   UNL     1       0.618   7.021   0.260  1.00  0.00    -0.246 OA
BRANCH  15  17
ATOM     17  O   UNL     1      -1.292   8.252   0.256  1.00  0.00    -0.478 OA
ATOM     18  H   UNL     1      -1.516   9.107  -0.166  1.00  0.00     0.297 HD
ENDBRANCH  15  17
ENDBRANCH   4  15
BRANCH   5  19
ATOM     19  O   UNL     1       1.163   5.921  -2.136  1.00  0.00    -0.507 OA
ATOM     20  H   UNL     1       2.105   6.097  -2.307  1.00  0.00     0.293 HD
ENDBRANCH   5  19
TORSDOF 4
ENDMDL
MODEL 9
REMARK VINA RESULT:    -4.269      5.845      8.252
REMARK INTER + INTRA:          -5.662
REMARK INTER:                  -5.064
REMARK INTRA:                  -0.598
REMARK UNBOUND:                -0.644
REMARK SMILES O=C(O)c1cc(-c2ccc(F)cc2F)ccc1O
REMARK SMILES IDX 6 1 5 2 15 3 4 4 17 5 16 6 7 7 13 8 12 9 8 10 10 11 9 12
REMARK SMILES IDX 14 13 11 14 2 15 1 16 3 17 18 19
REMARK H PARENT 3 18 18 20
ROOT
ATOM      1  C   UNL     1      -1.480  13.860  -4.314  1.00  0.00    -0.014 A 
ATOM      2  C   UNL     1      -2.528  14.778  -4.314  1.00  0.00     0.028 A 
ATOM      3  C   UNL     1      -0.160  14.308  -4.364  1.00  0.00     0.013 A 
ATOM      4  C   UNL     1      -2.258  16.146  -4.364  1.00  0.00     0.102 A 
ATOM      5  C   UNL     1      -0.938  16.594  -4.414  1.00  0.00     0.130 A 
ATOM      6  C   UNL     1       0.112  15.674  -4.414  1.00  0.00     0.048 A 
ENDROOT
BRANCH   1   7
ATOM      7  C   UNL     1      -1.759  12.441  -4.264  1.00  0.00     0.018 A 
ATOM      8  C   UNL     1      -2.843  11.915  -4.968  1.00  0.00     0.133 A 
ATOM      9  C   UNL     1      -3.110  10.547  -4.917  1.00  0.00     0.079 A 
ATOM     10  C   UNL     1      -0.942  11.598  -3.511  1.00  0.00     0.015 A 
ATOM     11  C   UNL     1      -2.293   9.705  -4.163  1.00  0.00     0.126 A 
ATOM     12  C   UNL     1      -1.209  10.231  -3.460  1.00  0.00     0.040 A 
ATOM     13  F   UNL     1      -3.640  12.711  -5.695  1.00  0.00    -0.206 F 
ATOM     14  F   UNL     1      -2.548   8.391  -4.113  1.00  0.00    -0.207 F 
ENDBRANCH   1   7
BRANCH   4  15
ATOM     15  C   UNL     1      -3.367  17.090  -4.362  1.00  0.00     0.339 C 
ATOM     16  O   UNL     1      -3.259  18.318  -4.343  1.00  0.00    -0.246 OA
BRANCH  15  17
ATOM     17  O   UNL     1      -4.577  16.467  -4.387  1.00  0.00    -0.478 OA
ATOM     18  H   UNL     1      -4.688  15.857  -3.628  1.00  0.00     0.297 HD
ENDBRANCH  15  17
ENDBRANCH   4  15
BRANCH   5  19
ATOM     19  O   UNL     1      -0.652  17.926  -4.462  1.00  0.00    -0.507 OA
ATOM     20  H   UNL     1       0.311  18.042  -4.537  1.00  0.00     0.293 HD
ENDBRANCH   5  19
TORSDOF 4
ENDMDL
