MODEL 1
REMARK VINA RESULT:    -5.324      0.000      0.000
REMARK INTER + INTRA:          -7.359
REMARK INTER:                  -6.569
REMARK INTRA:                  -0.790
REMARK UNBOUND:                -0.790
REMARK SMILES Cc1ccc(C(=O)c2cc(O)c(O)c([N+](=O)[O-])c2)cc1
REMARK SMILES IDX 8 1 18 2 9 3 14 4 10 5 12 6 6 7 7 8 5 9 4 10 19 11 3 12
REMARK SMILES IDX 20 13 2 14 1 15 15 16 17 17 16 18 11 19 13 21
REMARK H PARENT 11 20 13 22
ROOT
ATOM      1  C   UNL     1      -1.342   7.300  -3.258  1.00  0.00     0.033 A 
ATOM      2  C   UNL     1      -0.764   7.615  -2.050  1.00  0.00     0.102 A 
ATOM      3  C   UNL     1      -1.105   6.115  -3.913  1.00  0.00     0.063 A 
ATOM      4  C   UNL     1       0.101   6.690  -1.465  1.00  0.00     0.315 A 
ATOM      5  C   UNL     1      -0.239   5.191  -3.328  1.00  0.00     0.165 A 
ATOM      6  C   UNL     1       0.363   5.478  -2.103  1.00  0.00     0.237 A 
ENDROOT
BRANCH   1   7
ATOM      7  C   UNL     1      -2.269   8.290  -3.886  1.00  0.00     0.193 C 
ATOM      8  O   UNL     1      -3.300   7.848  -4.415  1.00  0.00    -0.289 OA
BRANCH   7   9
ATOM      9  C   UNL     1      -1.996   9.718  -3.891  1.00  0.00     0.023 A 
ATOM     10  C   UNL     1      -1.348  10.301  -4.980  1.00  0.00     0.012 A 
ATOM     11  C   UNL     1      -2.384  10.506  -2.807  1.00  0.00     0.012 A 
ATOM     12  C   UNL     1      -1.087  11.671  -4.984  1.00  0.00     0.004 A 
ATOM     13  C   UNL     1      -2.124  11.877  -2.811  1.00  0.00     0.004 A 
ATOM     14  C   UNL     1      -1.475  12.460  -3.900  1.00  0.00    -0.051 A 
ATOM     15  C   UNL     1      -1.195  13.924  -3.904  1.00  0.00     0.044 C 
ENDBRANCH   7   9
ENDBRANCH   1   7
BRANCH   4  16
ATOM     16  N   UNL     1       0.707   7.001  -0.216  1.00  0.00     0.066 N 
ATOM     17  O   UNL     1       0.039   7.627   0.642  1.00  0.00    -0.258 OA
ATOM     18  O   UNL     1       1.889   6.640  -0.009  1.00  0.00    -0.258 OA
ENDBRANCH   4  16
BRANCH   5  19
ATOM     19  O   UNL     1       0.007   4.011  -3.963  1.00  0.00    -0.504 OA
ATOM     20  H   UNL     1       0.077   4.164  -4.920  1.00  0.00     0.293 HD
ENDBRANCH   5  19
BRANCH   6  21
ATOM     21  O   UNL     1       1.208   4.566  -1.540  1.00  0.00    -0.500 OA
ATOM     22  H   UNL     1       2.127   4.819  -1.717  1.00  0.00     0.294 HD
ENDBRANCH   6  21
TORSDOF 5
ENDMDL
MODEL 2
REMARK VINA RESULT:    -5.320      2.025      3.538
REMARK INTER + INTRA:          -7.355
REMARK INTER:                  -6.596
REMARK INTRA:                  -0.759
REMARK UNBOUND:                -0.790
REMARK SMILES Cc1ccc(C(=O)c2cc(O)c(O)c([N+](=O)[O-])c2)cc1
REMARK SMILES IDX 8 1 18 2 9 3 14 4 10 5 12 6 6 7 7 8 5 9 4 10 19 11 3 12
REMARK SMILES IDX 20 13 2 14 1 15 15 16 17 17 16 18 11 19 13 21
REMARK H PARENT 11 20 13 22
ROOT
ATOM      1  C   UNL     1       0.089   8.230  -2.734  1.00  0.00     0.033 A 
ATOM      2  C   UNL     1      -0.228   7.203  -3.593  1.00  0.00     0.102 A 
ATOM      3  C   UNL     1       0.684   8.023  -1.512  1.00  0.00     0.063 A 
ATOM      4  C   UNL     1       0.069   5.896  -3.209  1.00  0.00     0.315 A 
ATOM      5  C   UNL     1       0.980   6.715  -1.127  1.00  0.00     0.165 A 
ATOM      6  C   UNL     1       0.673   5.651  -1.976  1.00  0.00     0.237 A 
ENDROOT
BRANCH   1   7
ATOM      7  C   UNL     1      -0.229   9.630  -3.145  1.00  0.00     0.193 C 
ATOM      8  O   UNL     1       0.553  10.521  -2.782  1.00  0.00    -0.289 OA
BRANCH   7   9
ATOM      9  C   UNL     1      -1.401   9.963  -3.939  1.00  0.00     0.023 A 
ATOM     10  C   UNL     1      -2.570  10.394  -3.311  1.00  0.00     0.012 A 
ATOM     11  C   UNL     1      -1.357   9.852  -5.328  1.00  0.00     0.012 A 
ATOM     12  C   UNL     1      -3.694  10.713  -4.073  1.00  0.00     0.004 A 
ATOM     13  C   UNL     1      -2.481  10.171  -6.091  1.00  0.00     0.004 A 
ATOM     14  C   UNL     1      -3.650  10.602  -5.463  1.00  0.00    -0.051 A 
ATOM     15  C   UNL     1      -4.852  10.941  -6.276  1.00  0.00     0.044 C 
ENDBRANCH   7   9
ENDBRANCH   1   7
BRANCH   4  16
ATOM     16  N   UNL     1      -0.253   4.825  -4.087  1.00  0.00     0.066 N 
ATOM     17  O   UNL     1      -0.544   3.707  -3.598  1.00  0.00    -0.258 OA
ATOM     18  O   UNL     1      -0.237   5.029  -5.323  1.00  0.00    -0.258 OA
ENDBRANCH   4  16
BRANCH   5  19
ATOM     19  O   UNL     1       1.571   6.491   0.080  1.00  0.00    -0.504 OA
ATOM     20  H   UNL     1       1.915   5.583   0.111  1.00  0.00     0.293 HD
ENDBRANCH   5  19
BRANCH   6  21
ATOM     21  O   UNL     1       0.968   4.376  -1.589  1.00  0.00    -0.500 OA
ATOM     22  H   UNL     1       1.785   4.375  -1.065  1.00  0.00     0.294 HD
ENDBRANCH   6  21
TORSDOF 5
ENDMDL
MODEL 3
REMARK VINA RESULT:    -4.511      3.532      7.196
REMARK INTER + INTRA:          -6.356
REMARK INTER:                  -5.371
REMARK INTRA:                  -0.985
REMARK UNBOUND:                -0.790
REMARK SMILES Cc1ccc(C(=O)c2cc(O)c(O)c([N+](=O)[O-])c2)cc1
REMARK SMILES IDX 8 1 18 2 9 3 14 4 10 5 12 6 6 7 7 8 5 9 4 10 19 11 3 12
REMARK SMILES IDX 20 13 2 14 1 15 15 16 17 17 16 18 11 19 13 21
REMARK H PARENT 11 20 13 22
ROOT
ATOM      1  C   UNL     1      -2.313  10.684  -3.582  1.00  0.00     0.033 A 
ATOM      2  C   UNL     1      -3.338  10.446  -4.469  1.00  0.00     0.102 A 
ATOM      3  C   UNL     1      -1.711  11.912  -3.449  1.00  0.00     0.063 A 
ATOM      4  C   UNL     1      -3.785  11.499  -5.268  1.00  0.00     0.315 A 
ATOM      5  C   UNL     1      -2.158  12.965  -4.248  1.00  0.00     0.165 A 
ATOM      6  C   UNL     1      -3.196  12.758  -5.158  1.00  0.00     0.237 A 
ENDROOT
BRANCH   1   7
ATOM      7  C   UNL     1      -1.833   9.557  -2.727  1.00  0.00     0.193 C 
ATOM      8  O   UNL     1      -1.825   9.738  -1.500  1.00  0.00    -0.289 OA
BRANCH   7   9
ATOM      9  C   UNL     1      -1.390   8.289  -3.284  1.00  0.00     0.023 A 
ATOM     10  C   UNL     1      -1.926   7.092  -2.808  1.00  0.00     0.012 A 
ATOM     11  C   UNL     1      -0.429   8.270  -4.294  1.00  0.00     0.012 A 
ATOM     12  C   UNL     1      -1.500   5.877  -3.343  1.00  0.00     0.004 A 
ATOM     13  C   UNL     1      -0.002   7.054  -4.830  1.00  0.00     0.004 A 
ATOM     14  C   UNL     1      -0.538   5.857  -4.354  1.00  0.00    -0.051 A 
ATOM     15  C   UNL     1      -0.083   4.557  -4.924  1.00  0.00     0.044 C 
ENDBRANCH   7   9
ENDBRANCH   1   7
BRANCH   4  16
ATOM     16  N   UNL     1      -4.844  11.269  -6.189  1.00  0.00     0.066 N 
ATOM     17  O   UNL     1      -5.634  12.207  -6.450  1.00  0.00    -0.258 OA
ATOM     18  O   UNL     1      -4.955  10.136  -6.714  1.00  0.00    -0.258 OA
ENDBRANCH   4  16
BRANCH   5  19
ATOM     19  O   UNL     1      -1.573  14.190  -4.129  1.00  0.00    -0.504 OA
ATOM     20  H   UNL     1      -0.886  14.289  -4.809  1.00  0.00     0.293 HD
ENDBRANCH   5  19
BRANCH   6  21
ATOM     21  O   UNL     1      -3.625  13.795  -5.933  1.00  0.00    -0.500 OA
ATOM     22  H   UNL     1      -4.594  13.788  -5.982  1.00  0.00     0.294 HD
ENDBRANCH   6  21
TORSDOF 5
ENDMDL
MODEL 4
REMARK VINA RESULT:    -4.509      3.683      6.559
REMARK INTER + INTRA:          -6.353
REMARK INTER:                  -5.359
REMARK INTRA:                  -0.994
REMARK UNBOUND:                -0.790
REMARK SMILES Cc1ccc(C(=O)c2cc(O)c(O)c([N+](=O)[O-])c2)cc1
REMARK SMILES IDX 8 1 18 2 9 3 14 4 10 5 12 6 6 7 7 8 5 9 4 10 19 11 3 12
REMARK SMILES IDX 20 13 2 14 1 15 15 16 17 17 16 18 11 19 13 21
REMARK H PARENT 11 20 13 22
ROOT
ATOM      1  C   UNL     1      -1.781  10.391  -4.850  1.00  0.00     0.033 A 
ATOM      2  C   UNL     1      -1.200  11.554  -4.401  1.00  0.00     0.102 A 
ATOM      3  C   UNL     1      -3.001  10.363  -5.484  1.00  0.00     0.063 A 
ATOM      4  C   UNL     1      -1.878  12.758  -4.598  1.00  0.00     0.315 A 
ATOM      5  C   UNL     1      -3.679  11.566  -5.680  1.00  0.00     0.165 A 
ATOM      6  C   UNL     1      -3.117  12.764  -5.237  1.00  0.00     0.237 A 
ENDROOT
BRANCH   1   7
ATOM      7  C   UNL     1      -1.056   9.102  -4.640  1.00  0.00     0.193 C 
ATOM      8  O   UNL     1      -0.829   8.406  -5.641  1.00  0.00    -0.289 OA
BRANCH   7   9
ATOM      9  C   UNL     1      -0.621   8.658  -3.325  1.00  0.00     0.023 A 
ATOM     10  C   UNL     1       0.709   8.291  -3.117  1.00  0.00     0.012 A 
ATOM     11  C   UNL     1      -1.533   8.599  -2.272  1.00  0.00     0.012 A 
ATOM     12  C   UNL     1       1.126   7.866  -1.856  1.00  0.00     0.004 A 
ATOM     13  C   UNL     1      -1.116   8.173  -1.010  1.00  0.00     0.004 A 
ATOM     14  C   UNL     1       0.214   7.806  -0.802  1.00  0.00    -0.051 A 
ATOM     15  C   UNL     1       0.659   7.350   0.545  1.00  0.00     0.044 C 
ENDBRANCH   7   9
ENDBRANCH   1   7
BRANCH   4  16
ATOM     16  N   UNL     1      -1.289  13.968  -4.139  1.00  0.00     0.066 N 
ATOM     17  O   UNL     1      -0.547  13.936  -3.128  1.00  0.00    -0.258 OA
ATOM     18  O   UNL     1      -1.529  15.031  -4.758  1.00  0.00    -0.258 OA
ENDBRANCH   4  16
BRANCH   5  19
ATOM     19  O   UNL     1      -4.889  11.557  -6.306  1.00  0.00    -0.504 OA
ATOM     20  H   UNL     1      -5.511  12.125  -5.822  1.00  0.00     0.293 HD
ENDBRANCH   5  19
BRANCH   6  21
ATOM     21  O   UNL     1      -3.790  13.935  -5.435  1.00  0.00    -0.500 OA
ATOM     22  H   UNL     1      -4.715  13.746  -5.656  1.00  0.00     0.294 HD
ENDBRANCH   6  21
TORSDOF 5
ENDMDL
MODEL 5
REMARK VINA RESULT:    -4.491      3.775      7.008
REMARK INTER + INTRA:          -6.331
REMARK INTER:                  -5.380
REMARK INTRA:                  -0.951
REMARK UNBOUND:                -0.790
REMARK SMILES Cc1ccc(C(=O)c2cc(O)c(O)c([N+](=O)[O-])c2)cc1
REMARK SMILES IDX 8 1 18 2 9 3 14 4 10 5 12 6 6 7 7 8 5 9 4 10 19 11 3 12
REMARK SMILES IDX 20 13 2 14 1 15 15 16 17 17 16 18 11 19 13 21
REMARK H PARENT 11 20 13 22
ROOT
ATOM      1  C   UNL     1      -1.774  10.465  -4.792  1.00  0.00     0.033 A 
ATOM      2  C   UNL     1      -3.004  10.480  -5.409  1.00  0.00     0.102 A 
ATOM      3  C   UNL     1      -1.150  11.604  -4.342  1.00  0.00     0.063 A 
ATOM      4  C   UNL     1      -3.646  11.706  -5.585  1.00  0.00     0.315 A 
ATOM      5  C   UNL     1      -1.792  12.830  -4.519  1.00  0.00     0.165 A 
ATOM      6  C   UNL     1      -3.040  12.881  -5.141  1.00  0.00     0.237 A 
ENDROOT
BRANCH   1   7
ATOM      7  C   UNL     1      -1.086   9.152  -4.603  1.00  0.00     0.193 C 
ATOM      8  O   UNL     1      -0.903   8.455  -5.612  1.00  0.00    -0.289 OA
BRANCH   7   9
ATOM      9  C   UNL     1      -0.639   8.686  -3.300  1.00  0.00     0.023 A 
ATOM     10  C   UNL     1       0.690   8.308  -3.113  1.00  0.00     0.012 A 
ATOM     11  C   UNL     1      -1.540   8.619  -2.237  1.00  0.00     0.012 A 
ATOM     12  C   UNL     1       1.119   7.862  -1.863  1.00  0.00     0.004 A 
ATOM     13  C   UNL     1      -1.111   8.172  -0.986  1.00  0.00     0.004 A 
ATOM     14  C   UNL     1       0.218   7.794  -0.799  1.00  0.00    -0.051 A 
ATOM     15  C   UNL     1       0.677   7.316   0.537  1.00  0.00     0.044 C 
ENDBRANCH   7   9
ENDBRANCH   1   7
BRANCH   4  16
ATOM     16  N   UNL     1      -4.917  11.738  -6.221  1.00  0.00     0.066 N 
ATOM     17  O   UNL     1      -5.639  10.712  -6.184  1.00  0.00    -0.258 OA
ATOM     18  O   UNL     1      -5.280  12.790  -6.797  1.00  0.00    -0.258 OA
ENDBRANCH   4  16
BRANCH   5  19
ATOM     19  O   UNL     1      -1.189  13.970  -4.080  1.00  0.00    -0.504 OA
ATOM     20  H   UNL     1      -0.540  13.750  -3.391  1.00  0.00     0.293 HD
ENDBRANCH   5  19
BRANCH   6  21
ATOM     21  O   UNL     1      -3.658  14.086  -5.307  1.00  0.00    -0.500 OA
ATOM     22  H   UNL     1      -4.424  13.982  -5.894  1.00  0.00     0.294 HD
ENDBRANCH   6  21
TORSDOF 5
ENDMDL
MODEL 6
REMARK VINA RESULT:    -4.489      3.732      6.829
REMARK INTER + INTRA:          -6.329
REMARK INTER:                  -5.347
REMARK INTRA:                  -0.982
REMARK UNBOUND:                -0.790
REMARK SMILES Cc1ccc(C(=O)c2cc(O)c(O)c([N+](=O)[O-])c2)cc1
REMARK SMILES IDX 8 1 18 2 9 3 14 4 10 5 12 6 6 7 7 8 5 9 4 10 19 11 3 12
REMARK SMILES IDX 20 13 2 14 1 15 15 16 17 17 16 18 11 19 13 21
REMARK H PARENT 11 20 13 22
ROOT
ATOM      1  C   UNL     1      -2.369  10.670  -3.697  1.00  0.00     0.033 A 
ATOM      2  C   UNL     1      -1.771  11.908  -3.650  1.00  0.00     0.102 A 
ATOM      3  C   UNL     1      -3.436  10.387  -4.516  1.00  0.00     0.063 A 
ATOM      4  C   UNL     1      -2.268  12.920  -4.472  1.00  0.00     0.315 A 
ATOM      5  C   UNL     1      -3.934  11.399  -5.337  1.00  0.00     0.165 A 
ATOM      6  C   UNL     1      -3.349  12.666  -5.315  1.00  0.00     0.237 A 
ENDROOT
BRANCH   1   7
ATOM      7  C   UNL     1      -1.837   9.586  -2.817  1.00  0.00     0.193 C 
ATOM      8  O   UNL     1      -1.791   9.813  -1.599  1.00  0.00    -0.289 OA
BRANCH   7   9
ATOM      9  C   UNL     1      -1.384   8.308  -3.342  1.00  0.00     0.023 A 
ATOM     10  C   UNL     1      -0.438   8.270  -4.368  1.00  0.00     0.012 A 
ATOM     11  C   UNL     1      -1.894   7.119  -2.821  1.00  0.00     0.012 A 
ATOM     12  C   UNL     1      -0.004   7.044  -4.871  1.00  0.00     0.004 A 
ATOM     13  C   UNL     1      -1.460   5.892  -3.324  1.00  0.00     0.004 A 
ATOM     14  C   UNL     1      -0.514   5.855  -4.349  1.00  0.00    -0.051 A 
ATOM     15  C   UNL     1      -0.051   4.545  -4.888  1.00  0.00     0.044 C 
ENDBRANCH   7   9
ENDBRANCH   1   7
BRANCH   4  16
ATOM     16  N   UNL     1      -1.660  14.205  -4.435  1.00  0.00     0.066 N 
ATOM     17  O   UNL     1      -2.357  15.213  -4.702  1.00  0.00    -0.258 OA
ATOM     18  O   UNL     1      -0.446  14.292  -4.137  1.00  0.00    -0.258 OA
ENDBRANCH   4  16
BRANCH   5  19
ATOM     19  O   UNL     1      -4.990  11.136  -6.156  1.00  0.00    -0.504 OA
ATOM     20  H   UNL     1      -5.787  10.982  -5.621  1.00  0.00     0.293 HD
ENDBRANCH   5  19
BRANCH   6  21
ATOM     21  O   UNL     1      -3.845  13.648  -6.123  1.00  0.00    -0.500 OA
ATOM     22  H   UNL     1      -3.422  14.493  -5.906  1.00  0.00     0.294 HD
ENDBRANCH   6  21
TORSDOF 5
ENDMDL
MODEL 7
REMARK VINA RESULT:    -4.397      1.889      2.486
REMARK INTER + INTRA:          -6.216
REMARK INTER:                  -5.507
REMARK INTRA:                  -0.708
REMARK UNBOUND:                -0.790
REMARK SMILES Cc1ccc(C(=O)c2cc(O)c(O)c([N+](=O)[O-])c2)cc1
REMARK SMILES IDX 8 1 18 2 9 3 14 4 10 5 12 6 6 7 7 8 5 9 4 10 19 11 3 12
REMARK SMILES IDX 20 13 2 14 1 15 15 16 17 17 16 18 11 19 13 21
REMARK H PARENT 11 20 13 22
ROOT
ATOM      1  C   UNL     1      -0.162   8.503  -2.943  1.00  0.00     0.033 A 
ATOM      2  C   UNL     1       0.291   8.337  -1.655  1.00  0.00     0.102 A 
ATOM      3  C   UNL     1      -0.293   7.461  -3.829  1.00  0.00     0.063 A 
ATOM      4  C   UNL     1       0.630   7.053  -1.228  1.00  0.00     0.315 A 
ATOM      5  C   UNL     1       0.047   6.176  -3.403  1.00  0.00     0.165 A 
ATOM      6  C   UNL     1       0.508   5.972  -2.102  1.00  0.00     0.237 A 
ENDROOT
BRANCH   1   7
ATOM      7  C   UNL     1      -0.525   9.879  -3.400  1.00  0.00     0.193 C 
ATOM      8  O   UNL     1       0.243  10.802  -3.092  1.00  0.00    -0.289 OA
BRANCH   7   9
ATOM      9  C   UNL     1      -1.724  10.151  -4.177  1.00  0.00     0.023 A 
ATOM     10  C   UNL     1      -2.906  10.511  -3.532  1.00  0.00     0.012 A 
ATOM     11  C   UNL     1      -1.691  10.052  -5.568  1.00  0.00     0.012 A 
ATOM     12  C   UNL     1      -4.056  10.772  -4.277  1.00  0.00     0.004 A 
ATOM     13  C   UNL     1      -2.840  10.314  -6.315  1.00  0.00     0.004 A 
ATOM     14  C   UNL     1      -4.023  10.674  -5.669  1.00  0.00    -0.051 A 
ATOM     15  C   UNL     1      -5.253  10.952  -6.465  1.00  0.00     0.044 C 
ENDBRANCH   7   9
ENDBRANCH   1   7
BRANCH   4  16
ATOM     16  N   UNL     1       1.098   6.864   0.101  1.00  0.00     0.066 N 
ATOM     17  O   UNL     1       0.338   7.150   1.058  1.00  0.00    -0.258 OA
ATOM     18  O   UNL     1       2.256   6.418   0.278  1.00  0.00    -0.258 OA
ENDBRANCH   4  16
BRANCH   5  19
ATOM     19  O   UNL     1      -0.077   5.130  -4.267  1.00  0.00    -0.504 OA
ATOM     20  H   UNL     1       0.042   5.445  -5.178  1.00  0.00     0.293 HD
ENDBRANCH   5  19
BRANCH   6  21
ATOM     21  O   UNL     1       0.837   4.711  -1.696  1.00  0.00    -0.500 OA
ATOM     22  H   UNL     1       1.532   4.355  -2.271  1.00  0.00     0.294 HD
ENDBRANCH   6  21
TORSDOF 5
ENDMDL
MODEL 8
REMARK VINA RESULT:    -4.394      1.269      2.689
REMARK INTER + INTRA:          -6.212
REMARK INTER:                  -5.517
REMARK INTRA:                  -0.695
REMARK UNBOUND:                -0.790
REMARK SMILES Cc1ccc(C(=O)c2cc(O)c(O)c([N+](=O)[O-])c2)cc1
REMARK SMILES IDX 8 1 18 2 9 3 14 4 10 5 12 6 6 7 7 8 5 9 4 10 19 11 3 12
REMARK SMILES IDX 20 13 2 14 1 15 15 16 17 17 16 18 11 19 13 21
REMARK H PARENT 11 20 13 22
ROOT
ATOM      1  C   UNL     1      -1.436   7.885  -3.320  1.00  0.00     0.033 A 
ATOM      2  C   UNL     1      -1.175   6.713  -3.992  1.00  0.00     0.102 A 
ATOM      3  C   UNL     1      -0.966   8.139  -2.053  1.00  0.00     0.063 A 
ATOM      4  C   UNL     1      -0.399   5.741  -3.362  1.00  0.00     0.315 A 
ATOM      5  C   UNL     1      -0.191   7.166  -1.422  1.00  0.00     0.165 A 
ATOM      6  C   UNL     1       0.093   5.967  -2.077  1.00  0.00     0.237 A 
ENDROOT
BRANCH   1   7
ATOM      7  C   UNL     1      -2.267   8.927  -3.995  1.00  0.00     0.193 C 
ATOM      8  O   UNL     1      -3.288   8.544  -4.587  1.00  0.00    -0.289 OA
BRANCH   7   9
ATOM      9  C   UNL     1      -1.917  10.338  -3.974  1.00  0.00     0.023 A 
ATOM     10  C   UNL     1      -1.200  10.894  -5.034  1.00  0.00     0.012 A 
ATOM     11  C   UNL     1      -2.298  11.135  -2.896  1.00  0.00     0.012 A 
ATOM     12  C   UNL     1      -0.864  12.248  -5.013  1.00  0.00     0.004 A 
ATOM     13  C   UNL     1      -1.963  12.490  -2.875  1.00  0.00     0.004 A 
ATOM     14  C   UNL     1      -1.246  13.046  -3.934  1.00  0.00    -0.051 A 
ATOM     15  C   UNL     1      -0.886  14.492  -3.912  1.00  0.00     0.044 C 
ENDBRANCH   7   9
ENDBRANCH   1   7
BRANCH   4  16
ATOM     16  N   UNL     1      -0.121   4.525  -4.044  1.00  0.00     0.066 N 
ATOM     17  O   UNL     1      -0.481   3.442  -3.524  1.00  0.00    -0.258 OA
ATOM     18  O   UNL     1       0.476   4.572  -5.145  1.00  0.00    -0.258 OA
ENDBRANCH   4  16
BRANCH   5  19
ATOM     19  O   UNL     1       0.284   7.400  -0.166  1.00  0.00    -0.504 OA
ATOM     20  H   UNL     1       1.112   7.904  -0.220  1.00  0.00     0.293 HD
ENDBRANCH   5  19
BRANCH   6  21
ATOM     21  O   UNL     1       0.853   5.023  -1.449  1.00  0.00    -0.500 OA
ATOM     22  H   UNL     1       1.095   4.326  -2.079  1.00  0.00     0.294 HD
ENDBRANCH   6  21
TORSDOF 5
ENDMDL
MODEL 9
REMARK VINA RESULT:    -4.335      3.545      4.459
REMARK INTER + INTRA:          -6.139
REMARK INTER:                  -5.180
REMARK INTRA:                  -0.958
REMARK UNBOUND:                -0.790
REMARK SMILES Cc1ccc(C(=O)c2cc(O)c(O)c([N+](=O)[O-])c2)cc1
REMARK SMILES IDX 8 1 18 2 9 3 14 4 10 5 12 6 6 7 7 8 5 9 4 10 19 11 3 12
REMARK SMILES IDX 20 13 2 14 1 15 15 16 17 17 16 18 11 19 13 21
REMARK H PARENT 11 20 13 22
ROOT
ATOM      1  C   UNL     1      -1.674  10.105  -5.052  1.00  0.00     0.033 A 
ATOM      2  C   UNL     1      -1.541   9.303  -3.942  1.00  0.00     0.102 A 
ATOM      3  C   UNL     1      -1.020   9.855  -6.235  1.00  0.00     0.063 A 
ATOM      4  C   UNL     1      -0.708   8.187  -4.021  1.00  0.00     0.315 A 
ATOM      5  C   UNL     1      -0.186   8.739  -6.314  1.00  0.00     0.165 A 
ATOM      6  C   UNL     1      -0.030   7.905  -5.206  1.00  0.00     0.237 A 
ENDROOT
BRANCH   1   7
ATOM      7  C   UNL     1      -2.566  11.300  -4.968  1.00  0.00     0.193 C 
ATOM      8  O   UNL     1      -2.120  12.304  -4.393  1.00  0.00    -0.289 OA
BRANCH   7   9
ATOM      9  C   UNL     1      -3.907  11.313  -5.530  1.00  0.00     0.023 A 
ATOM     10  C   UNL     1      -4.816  10.311  -5.189  1.00  0.00     0.012 A 
ATOM     11  C   UNL     1      -4.285  12.327  -6.409  1.00  0.00     0.012 A 
ATOM     12  C   UNL     1      -6.102  10.324  -5.727  1.00  0.00     0.004 A 
ATOM     13  C   UNL     1      -5.572  12.340  -6.949  1.00  0.00     0.004 A 
ATOM     14  C   UNL     1      -6.481  11.338  -6.607  1.00  0.00    -0.051 A 
ATOM     15  C   UNL     1      -7.856  11.350  -7.184  1.00  0.00     0.044 C 
ENDBRANCH   7   9
ENDBRANCH   1   7
BRANCH   4  16
ATOM     16  N   UNL     1      -0.561   7.349  -2.881  1.00  0.00     0.066 N 
ATOM     17  O   UNL     1       0.590   6.983  -2.543  1.00  0.00    -0.258 OA
ATOM     18  O   UNL     1      -1.586   7.003  -2.248  1.00  0.00    -0.258 OA
ENDBRANCH   4  16
BRANCH   5  19
ATOM     19  O   UNL     1       0.469   8.475  -7.479  1.00  0.00    -0.504 OA
ATOM     20  H   UNL     1       0.269   7.569  -7.767  1.00  0.00     0.293 HD
ENDBRANCH   5  19
BRANCH   6  21
ATOM     21  O   UNL     1       0.788   6.816  -5.296  1.00  0.00    -0.500 OA
ATOM     22  H   UNL     1       0.690   6.269  -4.501  1.00  0.00     0.294 HD
ENDBRANCH   6  21
TORSDOF 5
ENDMDL
