MODEL 1
REMARK VINA RESULT:    -6.579      0.000      0.000
REMARK INTER + INTRA:          -8.386
REMARK INTER:                  -7.733
REMARK INTRA:                  -0.653
REMARK UNBOUND:                -0.653
REMARK SMILES O=C(O)c1cc(-c2ccc(F)cc2F)ccc1O
REMARK SMILES IDX 6 1 5 2 15 3 4 4 17 5 16 6 7 7 13 8 12 9 8 10 10 11 9 12
REMARK SMILES IDX 14 13 11 14 2 15 1 16 3 17 18 19
REMARK H PARENT 3 18 18 20
ROOT
ATOM      1  C   UNL     1      -6.174   4.628  -0.368  1.00  0.00    -0.014 A 
ATOM      2  C   UNL     1      -6.454   3.569  -1.231  1.00  0.00     0.028 A 
ATOM      3  C   UNL     1      -4.899   4.760   0.182  1.00  0.00     0.013 A 
ATOM      4  C   UNL     1      -5.460   2.643  -1.546  1.00  0.00     0.102 A 
ATOM      5  C   UNL     1      -4.185   2.776  -0.996  1.00  0.00     0.130 A 
ATOM      6  C   UNL     1      -3.904   3.835  -0.132  1.00  0.00     0.048 A 
ENDROOT
BRANCH   1   7
ATOM      7  C   UNL     1      -7.206   5.588  -0.041  1.00  0.00     0.018 A 
ATOM      8  C   UNL     1      -7.439   5.940   1.289  1.00  0.00     0.133 A 
ATOM      9  C   UNL     1      -8.435   6.866   1.600  1.00  0.00     0.079 A 
ATOM     10  C   UNL     1      -7.966   6.164  -1.058  1.00  0.00     0.015 A 
ATOM     11  C   UNL     1      -9.196   7.441   0.583  1.00  0.00     0.126 A 
ATOM     12  C   UNL     1      -8.961   7.090  -0.747  1.00  0.00     0.040 A 
ATOM     13  F   UNL     1      -6.719   5.393   2.279  1.00  0.00    -0.206 F 
ATOM     14  F   UNL     1     -10.152   8.330   0.881  1.00  0.00    -0.207 F 
ENDBRANCH   1   7
BRANCH   4  15
ATOM     15  C   UNL     1      -5.772   1.545  -2.450  1.00  0.00     0.339 C 
ATOM     16  O   UNL     1      -5.480   0.361  -2.263  1.00  0.00    -0.246 OA
BRANCH  15  17
ATOM     17  O   UNL     1      -6.442   1.961  -3.559  1.00  0.00    -0.478 OA
ATOM     18  H   UNL     1      -6.672   1.212  -4.148  1.00  0.00     0.297 HD
ENDBRANCH  15  17
ENDBRANCH   4  15
BRANCH   5  19
ATOM     19  O   UNL     1      -3.199   1.882  -1.290  1.00  0.00    -0.507 OA
ATOM     20  H   UNL     1      -2.931   1.424  -0.474  1.00  0.00     0.293 HD
ENDBRANCH   5  19
TORSDOF 4
ENDMDL
MODEL 2
REMARK VINA RESULT:    -6.551      1.137      1.609
REMARK INTER + INTRA:          -8.353
REMARK INTER:                  -7.787
REMARK INTRA:                  -0.567
REMARK UNBOUND:                -0.653
REMARK SMILES O=C(O)c1cc(-c2ccc(F)cc2F)ccc1O
REMARK SMILES IDX 6 1 5 2 15 3 4 4 17 5 16 6 7 7 13 8 12 9 8 10 10 11 9 12
REMARK SMILES IDX 14 13 11 14 2 15 1 16 3 17 18 19
REMARK H PARENT 3 18 18 20
ROOT
ATOM      1  C   UNL     1      -6.100   4.631  -0.308  1.00  0.00    -0.014 A 
ATOM      2  C   UNL     1      -6.316   3.568  -1.184  1.00  0.00     0.028 A 
ATOM      3  C   UNL     1      -4.863   4.778   0.319  1.00  0.00     0.013 A 
ATOM      4  C   UNL     1      -5.294   2.651  -1.433  1.00  0.00     0.102 A 
ATOM      5  C   UNL     1      -4.057   2.798  -0.806  1.00  0.00     0.130 A 
ATOM      6  C   UNL     1      -3.841   3.862   0.071  1.00  0.00     0.048 A 
ENDROOT
BRANCH   1   7
ATOM      7  C   UNL     1      -7.159   5.583  -0.048  1.00  0.00     0.018 A 
ATOM      8  C   UNL     1      -7.916   6.093  -1.103  1.00  0.00     0.133 A 
ATOM      9  C   UNL     1      -8.936   7.010  -0.848  1.00  0.00     0.079 A 
ATOM     10  C   UNL     1      -7.423   5.987   1.260  1.00  0.00     0.015 A 
ATOM     11  C   UNL     1      -9.200   7.415   0.460  1.00  0.00     0.126 A 
ATOM     12  C   UNL     1      -8.443   6.903   1.514  1.00  0.00     0.040 A 
ATOM     13  F   UNL     1      -7.673   5.717  -2.367  1.00  0.00    -0.206 F 
ATOM     14  F   UNL     1     -10.179   8.295   0.705  1.00  0.00    -0.207 F 
ENDBRANCH   1   7
BRANCH   4  15
ATOM     15  C   UNL     1      -5.540   1.547  -2.351  1.00  0.00     0.339 C 
ATOM     16  O   UNL     1      -5.367   0.354  -2.095  1.00  0.00    -0.246 OA
BRANCH  15  17
ATOM     17  O   UNL     1      -5.995   1.972  -3.561  1.00  0.00    -0.478 OA
ATOM     18  H   UNL     1      -6.132   2.942  -3.580  1.00  0.00     0.297 HD
ENDBRANCH  15  17
ENDBRANCH   4  15
BRANCH   5  19
ATOM     19  O   UNL     1      -3.046   1.913  -1.036  1.00  0.00    -0.507 OA
ATOM     20  H   UNL     1      -2.320   2.373  -1.493  1.00  0.00     0.293 HD
ENDBRANCH   5  19
TORSDOF 4
ENDMDL
MODEL 3
REMARK VINA RESULT:    -6.506      1.375      2.817
REMARK INTER + INTRA:          -8.300
REMARK INTER:                  -7.698
REMARK INTRA:                  -0.601
REMARK UNBOUND:                -0.653
REMARK SMILES O=C(O)c1cc(-c2ccc(F)cc2F)ccc1O
REMARK SMILES IDX 6 1 5 2 15 3 4 4 17 5 16 6 7 7 13 8 12 9 8 10 10 11 9 12
REMARK SMILES IDX 14 13 11 14 2 15 1 16 3 17 18 19
REMARK H PARENT 3 18 18 20
ROOT
ATOM      1  C   UNL     1      -6.157   4.599  -0.157  1.00  0.00    -0.014 A 
ATOM      2  C   UNL     1      -4.941   4.774   0.502  1.00  0.00     0.028 A 
ATOM      3  C   UNL     1      -6.335   3.513  -1.014  1.00  0.00     0.013 A 
ATOM      4  C   UNL     1      -3.902   3.864   0.305  1.00  0.00     0.102 A 
ATOM      5  C   UNL     1      -4.080   2.778  -0.551  1.00  0.00     0.130 A 
ATOM      6  C   UNL     1      -5.297   2.602  -1.211  1.00  0.00     0.048 A 
ENDROOT
BRANCH   1   7
ATOM      7  C   UNL     1      -7.234   5.543   0.046  1.00  0.00     0.018 A 
ATOM      8  C   UNL     1      -7.552   5.977   1.333  1.00  0.00     0.133 A 
ATOM      9  C   UNL     1      -8.592   6.888   1.525  1.00  0.00     0.079 A 
ATOM     10  C   UNL     1      -7.954   6.021  -1.049  1.00  0.00     0.015 A 
ATOM     11  C   UNL     1      -9.312   7.364   0.430  1.00  0.00     0.126 A 
ATOM     12  C   UNL     1      -8.993   6.931  -0.857  1.00  0.00     0.040 A 
ATOM     13  F   UNL     1      -6.871   5.526   2.397  1.00  0.00    -0.206 F 
ATOM     14  F   UNL     1     -10.310   8.238   0.613  1.00  0.00    -0.207 F 
ENDBRANCH   1   7
BRANCH   4  15
ATOM     15  C   UNL     1      -2.640   4.065   1.004  1.00  0.00     0.339 C 
ATOM     16  O   UNL     1      -1.524   4.050   0.479  1.00  0.00    -0.246 OA
BRANCH  15  17
ATOM     17  O   UNL     1      -2.814   4.281   2.336  1.00  0.00    -0.478 OA
ATOM     18  H   UNL     1      -3.158   5.181   2.518  1.00  0.00     0.297 HD
ENDBRANCH  15  17
ENDBRANCH   4  15
BRANCH   5  19
ATOM     19  O   UNL     1      -3.078   1.877  -0.757  1.00  0.00    -0.507 OA
ATOM     20  H   UNL     1      -2.838   1.880  -1.700  1.00  0.00     0.293 HD
ENDBRANCH   5  19
TORSDOF 4
ENDMDL
MODEL 4
REMARK VINA RESULT:    -5.245      1.843      3.044
REMARK INTER + INTRA:          -6.818
REMARK INTER:                  -6.030
REMARK INTRA:                  -0.788
REMARK UNBOUND:                -0.653
REMARK SMILES O=C(O)c1cc(-c2ccc(F)cc2F)ccc1O
REMARK SMILES IDX 6 1 5 2 15 3 4 4 17 5 16 6 7 7 13 8 12 9 8 10 10 11 9 12
REMARK SMILES IDX 14 13 11 14 2 15 1 16 3 17 18 19
REMARK H PARENT 3 18 18 20
ROOT
ATOM      1  C   UNL     1      -6.616   5.265  -0.207  1.00  0.00    -0.014 A 
ATOM      2  C   UNL     1      -5.521   5.231   0.655  1.00  0.00     0.028 A 
ATOM      3  C   UNL     1      -6.632   4.458  -1.345  1.00  0.00     0.013 A 
ATOM      4  C   UNL     1      -4.441   4.392   0.380  1.00  0.00     0.102 A 
ATOM      5  C   UNL     1      -4.458   3.586  -0.758  1.00  0.00     0.130 A 
ATOM      6  C   UNL     1      -5.554   3.619  -1.621  1.00  0.00     0.048 A 
ENDROOT
BRANCH   1   7
ATOM      7  C   UNL     1      -7.736   6.136   0.077  1.00  0.00     0.018 A 
ATOM      8  C   UNL     1      -7.524   7.495   0.310  1.00  0.00     0.133 A 
ATOM      9  C   UNL     1      -8.607   8.332   0.583  1.00  0.00     0.079 A 
ATOM     10  C   UNL     1      -9.029   5.615   0.116  1.00  0.00     0.015 A 
ATOM     11  C   UNL     1      -9.899   7.810   0.624  1.00  0.00     0.126 A 
ATOM     12  C   UNL     1     -10.110   6.451   0.390  1.00  0.00     0.040 A 
ATOM     13  F   UNL     1      -6.288   8.012   0.278  1.00  0.00    -0.206 F 
ATOM     14  F   UNL     1     -10.939   8.613   0.886  1.00  0.00    -0.207 F 
ENDBRANCH   1   7
BRANCH   4  15
ATOM     15  C   UNL     1      -3.307   4.371   1.294  1.00  0.00     0.339 C 
ATOM     16  O   UNL     1      -3.379   4.456   2.522  1.00  0.00    -0.246 OA
BRANCH  15  17
ATOM     17  O   UNL     1      -2.119   4.245   0.642  1.00  0.00    -0.478 OA
ATOM     18  H   UNL     1      -1.362   4.229   1.265  1.00  0.00     0.297 HD
ENDBRANCH  15  17
ENDBRANCH   4  15
BRANCH   5  19
ATOM     19  O   UNL     1      -3.413   2.758  -1.045  1.00  0.00    -0.507 OA
ATOM     20  H   UNL     1      -3.689   2.124  -1.729  1.00  0.00     0.293 HD
ENDBRANCH   5  19
TORSDOF 4
ENDMDL
MODEL 5
REMARK VINA RESULT:    -5.240      4.481      6.871
REMARK INTER + INTRA:          -6.812
REMARK INTER:                  -5.740
REMARK INTRA:                  -1.072
REMARK UNBOUND:                -0.653
REMARK SMILES O=C(O)c1cc(-c2ccc(F)cc2F)ccc1O
REMARK SMILES IDX 6 1 5 2 15 3 4 4 17 5 16 6 7 7 13 8 12 9 8 10 10 11 9 12
REMARK SMILES IDX 14 13 11 14 2 15 1 16 3 17 18 19
REMARK H PARENT 3 18 18 20
ROOT
ATOM      1  C   UNL     1      -8.149   6.278   0.098  1.00  0.00    -0.014 A 
ATOM      2  C   UNL     1      -7.845   7.616   0.348  1.00  0.00     0.028 A 
ATOM      3  C   UNL     1      -9.474   5.846   0.137  1.00  0.00     0.013 A 
ATOM      4  C   UNL     1      -8.865   8.522   0.637  1.00  0.00     0.102 A 
ATOM      5  C   UNL     1     -10.191   8.089   0.676  1.00  0.00     0.130 A 
ATOM      6  C   UNL     1     -10.496   6.750   0.426  1.00  0.00     0.048 A 
ENDROOT
BRANCH   1   7
ATOM      7  C   UNL     1      -7.090   5.338  -0.201  1.00  0.00     0.018 A 
ATOM      8  C   UNL     1      -6.779   5.032  -1.527  1.00  0.00     0.133 A 
ATOM      9  C   UNL     1      -5.758   4.125  -1.810  1.00  0.00     0.079 A 
ATOM     10  C   UNL     1      -6.381   4.738   0.839  1.00  0.00     0.015 A 
ATOM     11  C   UNL     1      -5.049   3.524  -0.771  1.00  0.00     0.126 A 
ATOM     12  C   UNL     1      -5.360   3.832   0.554  1.00  0.00     0.040 A 
ATOM     13  F   UNL     1      -7.453   5.598  -2.538  1.00  0.00    -0.206 F 
ATOM     14  F   UNL     1      -4.069   2.653  -1.042  1.00  0.00    -0.207 F 
ENDBRANCH   1   7
BRANCH   4  15
ATOM     15  C   UNL     1      -8.527   9.914   0.895  1.00  0.00     0.339 C 
ATOM     16  O   UNL     1      -9.302  10.768   1.333  1.00  0.00    -0.246 OA
BRANCH  15  17
ATOM     17  O   UNL     1      -7.229  10.195   0.599  1.00  0.00    -0.478 OA
ATOM     18  H   UNL     1      -6.797   9.458   0.118  1.00  0.00     0.297 HD
ENDBRANCH  15  17
ENDBRANCH   4  15
BRANCH   5  19
ATOM     19  O   UNL     1     -11.203   8.958   0.957  1.00  0.00    -0.507 OA
ATOM     20  H   UNL     1     -12.019   8.453   1.118  1.00  0.00     0.293 HD
ENDBRANCH   5  19
TORSDOF 4
ENDMDL
MODEL 6
REMARK VINA RESULT:    -5.237      4.174      6.506
REMARK INTER + INTRA:          -6.809
REMARK INTER:                  -5.733
REMARK INTRA:                  -1.075
REMARK UNBOUND:                -0.653
REMARK SMILES O=C(O)c1cc(-c2ccc(F)cc2F)ccc1O
REMARK SMILES IDX 6 1 5 2 15 3 4 4 17 5 16 6 7 7 13 8 12 9 8 10 10 11 9 12
REMARK SMILES IDX 14 13 11 14 2 15 1 16 3 17 18 19
REMARK H PARENT 3 18 18 20
ROOT
ATOM      1  C   UNL     1      -8.148   6.443   0.178  1.00  0.00    -0.014 A 
ATOM      2  C   UNL     1      -9.480   6.039   0.266  1.00  0.00     0.028 A 
ATOM      3  C   UNL     1      -7.815   7.786   0.347  1.00  0.00     0.013 A 
ATOM      4  C   UNL     1     -10.479   6.978   0.523  1.00  0.00     0.102 A 
ATOM      5  C   UNL     1     -10.145   8.321   0.693  1.00  0.00     0.130 A 
ATOM      6  C   UNL     1      -8.812   8.726   0.605  1.00  0.00     0.048 A 
ENDROOT
BRANCH   1   7
ATOM      7  C   UNL     1      -7.112   5.469  -0.091  1.00  0.00     0.018 A 
ATOM      8  C   UNL     1      -6.820   5.101  -1.405  1.00  0.00     0.133 A 
ATOM      9  C   UNL     1      -5.820   4.162  -1.660  1.00  0.00     0.079 A 
ATOM     10  C   UNL     1      -6.404   4.899   0.967  1.00  0.00     0.015 A 
ATOM     11  C   UNL     1      -5.113   3.592  -0.602  1.00  0.00     0.126 A 
ATOM     12  C   UNL     1      -5.405   3.961   0.711  1.00  0.00     0.040 A 
ATOM     13  F   UNL     1      -7.493   5.638  -2.433  1.00  0.00    -0.206 F 
ATOM     14  F   UNL     1      -4.153   2.690  -0.846  1.00  0.00    -0.207 F 
ENDBRANCH   1   7
BRANCH   4  15
ATOM     15  C   UNL     1     -11.863   6.535   0.612  1.00  0.00     0.339 C 
ATOM     16  O   UNL     1     -12.808   7.223   1.006  1.00  0.00    -0.246 OA
BRANCH  15  17
ATOM     17  O   UNL     1     -12.023   5.247   0.203  1.00  0.00    -0.478 OA
ATOM     18  H   UNL     1     -11.167   4.772   0.153  1.00  0.00     0.297 HD
ENDBRANCH  15  17
ENDBRANCH   4  15
BRANCH   5  19
ATOM     19  O   UNL     1     -11.106   9.255   0.947  1.00  0.00    -0.507 OA
ATOM     20  H   UNL     1     -10.679  10.115   1.104  1.00  0.00     0.293 HD
ENDBRANCH   5  19
TORSDOF 4
ENDMDL
MODEL 7
REMARK VINA RESULT:    -4.224      6.050      8.298
REMARK INTER + INTRA:          -5.618
REMARK INTER:                  -4.595
REMARK INTRA:                  -1.023
REMARK UNBOUND:                -0.653
REMARK SMILES O=C(O)c1cc(-c2ccc(F)cc2F)ccc1O
REMARK SMILES IDX 6 1 5 2 15 3 4 4 17 5 16 6 7 7 13 8 12 9 8 10 10 11 9 12
REMARK SMILES IDX 14 13 11 14 2 15 1 16 3 17 18 19
REMARK H PARENT 3 18 18 20
ROOT
ATOM      1  C   UNL     1      -8.778   9.758   0.599  1.00  0.00    -0.014 A 
ATOM      2  C   UNL     1      -9.925  10.193   1.262  1.00  0.00     0.028 A 
ATOM      3  C   UNL     1      -7.876  10.687   0.082  1.00  0.00     0.013 A 
ATOM      4  C   UNL     1     -10.170  11.559   1.409  1.00  0.00     0.102 A 
ATOM      5  C   UNL     1      -9.268  12.489   0.892  1.00  0.00     0.130 A 
ATOM      6  C   UNL     1      -8.120  12.053   0.228  1.00  0.00     0.048 A 
ENDROOT
BRANCH   1   7
ATOM      7  C   UNL     1      -8.524   8.341   0.446  1.00  0.00     0.018 A 
ATOM      8  C   UNL     1      -7.943   7.617   1.488  1.00  0.00     0.133 A 
ATOM      9  C   UNL     1      -7.699   6.252   1.335  1.00  0.00     0.079 A 
ATOM     10  C   UNL     1      -8.861   7.701  -0.746  1.00  0.00     0.015 A 
ATOM     11  C   UNL     1      -8.036   5.612   0.144  1.00  0.00     0.126 A 
ATOM     12  C   UNL     1      -8.618   6.336  -0.897  1.00  0.00     0.040 A 
ATOM     13  F   UNL     1      -7.610   8.219   2.639  1.00  0.00    -0.206 F 
ATOM     14  F   UNL     1      -7.802   4.301  -0.003  1.00  0.00    -0.207 F 
ENDBRANCH   1   7
BRANCH   4  15
ATOM     15  C   UNL     1     -11.373  11.993   2.105  1.00  0.00     0.339 C 
ATOM     16  O   UNL     1     -12.082  12.948   1.777  1.00  0.00    -0.246 OA
BRANCH  15  17
ATOM     17  O   UNL     1     -11.653  11.219   3.189  1.00  0.00    -0.478 OA
ATOM     18  H   UNL     1     -11.164  10.370   3.166  1.00  0.00     0.297 HD
ENDBRANCH  15  17
ENDBRANCH   4  15
BRANCH   5  19
ATOM     19  O   UNL     1      -9.489  13.827   1.025  1.00  0.00    -0.507 OA
ATOM     20  H   UNL     1      -9.496  14.055   1.971  1.00  0.00     0.293 HD
ENDBRANCH   5  19
TORSDOF 4
ENDMDL
MODEL 8
REMARK VINA RESULT:    -4.039      2.011      2.978
REMARK INTER + INTRA:          -5.400
REMARK INTER:                  -4.330
REMARK INTRA:                  -1.071
REMARK UNBOUND:                -0.653
REMARK SMILES O=C(O)c1cc(-c2ccc(F)cc2F)ccc1O
REMARK SMILES IDX 6 1 5 2 15 3 4 4 17 5 16 6 7 7 13 8 12 9 8 10 10 11 9 12
REMARK SMILES IDX 14 13 11 14 2 15 1 16 3 17 18 19
REMARK H PARENT 3 18 18 20
ROOT
ATOM      1  C   UNL     1      -7.848   5.903  -0.868  1.00  0.00    -0.014 A 
ATOM      2  C   UNL     1      -7.354   4.862  -0.083  1.00  0.00     0.028 A 
ATOM      3  C   UNL     1      -7.619   5.908  -2.244  1.00  0.00     0.013 A 
ATOM      4  C   UNL     1      -6.631   3.825  -0.673  1.00  0.00     0.102 A 
ATOM      5  C   UNL     1      -6.402   3.831  -2.049  1.00  0.00     0.130 A 
ATOM      6  C   UNL     1      -6.896   4.873  -2.835  1.00  0.00     0.048 A 
ENDROOT
BRANCH   1   7
ATOM      7  C   UNL     1      -8.597   6.979  -0.256  1.00  0.00     0.018 A 
ATOM      8  C   UNL     1      -9.962   6.829  -0.007  1.00  0.00     0.133 A 
ATOM      9  C   UNL     1     -10.681   7.869   0.584  1.00  0.00     0.079 A 
ATOM     10  C   UNL     1      -7.952   8.167   0.087  1.00  0.00     0.015 A 
ATOM     11  C   UNL     1     -10.036   9.057   0.925  1.00  0.00     0.126 A 
ATOM     12  C   UNL     1      -8.671   9.206   0.677  1.00  0.00     0.040 A 
ATOM     13  F   UNL     1     -10.598   5.695  -0.332  1.00  0.00    -0.206 F 
ATOM     14  F   UNL     1     -10.725  10.056   1.491  1.00  0.00    -0.207 F 
ENDBRANCH   1   7
BRANCH   4  15
ATOM     15  C   UNL     1      -6.124   2.746   0.164  1.00  0.00     0.339 C 
ATOM     16  O   UNL     1      -6.760   2.173   1.051  1.00  0.00    -0.246 OA
BRANCH  15  17
ATOM     17  O   UNL     1      -4.838   2.418  -0.137  1.00  0.00    -0.478 OA
ATOM     18  H   UNL     1      -4.689   2.376  -1.105  1.00  0.00     0.297 HD
ENDBRANCH  15  17
ENDBRANCH   4  15
BRANCH   5  19
ATOM     19  O   UNL     1      -5.698   2.827  -2.646  1.00  0.00    -0.507 OA
ATOM     20  H   UNL     1      -6.233   2.015  -2.636  1.00  0.00     0.293 HD
ENDBRANCH   5  19
TORSDOF 4
ENDMDL
MODEL 9
REMARK VINA RESULT:    -3.752      4.737      6.638
REMARK INTER + INTRA:          -5.063
REMARK INTER:                  -4.367
REMARK INTRA:                  -0.696
REMARK UNBOUND:                -0.653
REMARK SMILES O=C(O)c1cc(-c2ccc(F)cc2F)ccc1O
REMARK SMILES IDX 6 1 5 2 15 3 4 4 17 5 16 6 7 7 13 8 12 9 8 10 10 11 9 12
REMARK SMILES IDX 14 13 11 14 2 15 1 16 3 17 18 19
REMARK H PARENT 3 18 18 20
ROOT
ATOM      1  C   UNL     1      -8.884   9.525   0.651  1.00  0.00    -0.014 A 
ATOM      2  C   UNL     1     -10.068   8.790   0.598  1.00  0.00     0.028 A 
ATOM      3  C   UNL     1      -7.656   8.867   0.720  1.00  0.00     0.013 A 
ATOM      4  C   UNL     1     -10.024   7.395   0.615  1.00  0.00     0.102 A 
ATOM      5  C   UNL     1      -8.796   6.737   0.685  1.00  0.00     0.130 A 
ATOM      6  C   UNL     1      -7.612   7.473   0.738  1.00  0.00     0.048 A 
ENDROOT
BRANCH   1   7
ATOM      7  C   UNL     1      -8.929  10.972   0.634  1.00  0.00     0.018 A 
ATOM      8  C   UNL     1      -9.830  11.654   1.452  1.00  0.00     0.133 A 
ATOM      9  C   UNL     1      -9.870  13.048   1.433  1.00  0.00     0.079 A 
ATOM     10  C   UNL     1      -8.067  11.683  -0.200  1.00  0.00     0.015 A 
ATOM     11  C   UNL     1      -9.009  13.760   0.598  1.00  0.00     0.126 A 
ATOM     12  C   UNL     1      -8.107  13.076  -0.218  1.00  0.00     0.040 A 
ATOM     13  F   UNL     1     -10.667  10.985   2.258  1.00  0.00    -0.206 F 
ATOM     14  F   UNL     1      -9.047  15.098   0.579  1.00  0.00    -0.207 F 
ENDBRANCH   1   7
BRANCH   4  15
ATOM     15  C   UNL     1     -11.271   6.645   0.559  1.00  0.00     0.339 C 
ATOM     16  O   UNL     1     -11.382   5.469   0.204  1.00  0.00    -0.246 OA
BRANCH  15  17
ATOM     17  O   UNL     1     -12.341   7.389   0.951  1.00  0.00    -0.478 OA
ATOM     18  H   UNL     1     -13.173   6.870   0.932  1.00  0.00     0.297 HD
ENDBRANCH  15  17
ENDBRANCH   4  15
BRANCH   5  19
ATOM     19  O   UNL     1      -8.732   5.375   0.702  1.00  0.00    -0.507 OA
ATOM     20  H   UNL     1      -8.385   5.063  -0.152  1.00  0.00     0.293 HD
ENDBRANCH   5  19
TORSDOF 4
ENDMDL
