MODEL 1
REMARK VINA RESULT:    -5.323      0.000      0.000
REMARK INTER + INTRA:          -7.339
REMARK INTER:                  -6.568
REMARK INTRA:                  -0.772
REMARK UNBOUND:                -0.772
REMARK SMILES Cc1ccc(C(=O)c2cc(O)c(O)c([N+](=O)[O-])c2)cc1
REMARK SMILES IDX 8 1 18 2 9 3 14 4 10 5 12 6 6 7 7 8 5 9 4 10 19 11 3 12
REMARK SMILES IDX 20 13 2 14 1 15 15 16 17 17 16 18 11 19 13 21
REMARK H PARENT 11 20 13 22
ROOT
ATOM      1  C   UNL     1      -5.387   5.159  -0.387  1.00  0.00     0.033 A 
ATOM      2  C   UNL     1      -5.930   4.137  -1.132  1.00  0.00     0.102 A 
ATOM      3  C   UNL     1      -4.133   5.089   0.172  1.00  0.00     0.063 A 
ATOM      4  C   UNL     1      -5.175   2.981  -1.329  1.00  0.00     0.315 A 
ATOM      5  C   UNL     1      -3.378   3.932  -0.024  1.00  0.00     0.165 A 
ATOM      6  C   UNL     1      -3.899   2.878  -0.775  1.00  0.00     0.237 A 
ENDROOT
BRANCH   1   7
ATOM      7  C   UNL     1      -6.195   6.397  -0.176  1.00  0.00     0.193 C 
ATOM      8  O   UNL     1      -5.584   7.476  -0.141  1.00  0.00    -0.289 OA
BRANCH   7   9
ATOM      9  C   UNL     1      -7.640   6.367  -0.016  1.00  0.00     0.023 A 
ATOM     10  C   UNL     1      -8.200   6.340   1.262  1.00  0.00     0.012 A 
ATOM     11  C   UNL     1      -8.467   6.367  -1.139  1.00  0.00     0.012 A 
ATOM     12  C   UNL     1      -9.586   6.311   1.415  1.00  0.00     0.004 A 
ATOM     13  C   UNL     1      -9.853   6.339  -0.986  1.00  0.00     0.004 A 
ATOM     14  C   UNL     1     -10.413   6.311   0.291  1.00  0.00    -0.051 A 
ATOM     15  C   UNL     1     -11.894   6.279   0.456  1.00  0.00     0.044 C 
ENDBRANCH   7   9
ENDBRANCH   1   7
BRANCH   4  16
ATOM     16  N   UNL     1      -5.723   1.917  -2.097  1.00  0.00     0.066 N 
ATOM     17  O   UNL     1      -6.530   2.188  -3.019  1.00  0.00    -0.258 OA
ATOM     18  O   UNL     1      -5.384   0.741  -1.831  1.00  0.00    -0.258 OA
ENDBRANCH   4  16
BRANCH   5  19
ATOM     19  O   UNL     1      -2.133   3.846   0.522  1.00  0.00    -0.504 OA
ATOM     20  H   UNL     1      -1.881   4.707   0.895  1.00  0.00     0.293 HD
ENDBRANCH   5  19
BRANCH   6  21
ATOM     21  O   UNL     1      -3.151   1.752  -0.961  1.00  0.00    -0.500 OA
ATOM     22  H   UNL     1      -2.992   1.322  -0.106  1.00  0.00     0.294 HD
ENDBRANCH   6  21
TORSDOF 5
ENDMDL
MODEL 2
REMARK VINA RESULT:    -5.322      2.041      3.550
REMARK INTER + INTRA:          -7.338
REMARK INTER:                  -6.537
REMARK INTRA:                  -0.801
REMARK UNBOUND:                -0.772
REMARK SMILES Cc1ccc(C(=O)c2cc(O)c(O)c([N+](=O)[O-])c2)cc1
REMARK SMILES IDX 8 1 18 2 9 3 14 4 10 5 12 6 6 7 7 8 5 9 4 10 19 11 3 12
REMARK SMILES IDX 20 13 2 14 1 15 15 16 17 17 16 18 11 19 13 21
REMARK H PARENT 11 20 13 22
ROOT
ATOM      1  C   UNL     1      -6.609   3.768  -0.121  1.00  0.00     0.033 A 
ATOM      2  C   UNL     1      -5.491   4.216   0.543  1.00  0.00     0.102 A 
ATOM      3  C   UNL     1      -6.576   2.733  -1.024  1.00  0.00     0.063 A 
ATOM      4  C   UNL     1      -4.270   3.591   0.290  1.00  0.00     0.315 A 
ATOM      5  C   UNL     1      -5.355   2.108  -1.279  1.00  0.00     0.165 A 
ATOM      6  C   UNL     1      -4.201   2.537  -0.621  1.00  0.00     0.237 A 
ENDROOT
BRANCH   1   7
ATOM      7  C   UNL     1      -7.917   4.437   0.151  1.00  0.00     0.193 C 
ATOM      8  O   UNL     1      -8.920   3.713   0.234  1.00  0.00    -0.289 OA
BRANCH   7   9
ATOM      9  C   UNL     1      -8.037   5.877   0.315  1.00  0.00     0.023 A 
ATOM     10  C   UNL     1      -8.340   6.682  -0.784  1.00  0.00     0.012 A 
ATOM     11  C   UNL     1      -7.849   6.454   1.571  1.00  0.00     0.012 A 
ATOM     12  C   UNL     1      -8.455   8.062  -0.626  1.00  0.00     0.004 A 
ATOM     13  C   UNL     1      -7.965   7.836   1.729  1.00  0.00     0.004 A 
ATOM     14  C   UNL     1      -8.268   8.640   0.630  1.00  0.00    -0.051 A 
ATOM     15  C   UNL     1      -8.390  10.116   0.798  1.00  0.00     0.044 C 
ENDBRANCH   7   9
ENDBRANCH   1   7
BRANCH   4  16
ATOM     16  N   UNL     1      -3.105   4.043   0.969  1.00  0.00     0.066 N 
ATOM     17  O   UNL     1      -3.197   4.372   2.176  1.00  0.00    -0.258 OA
ATOM     18  O   UNL     1      -2.021   4.097   0.342  1.00  0.00    -0.258 OA
ENDBRANCH   4  16
BRANCH   5  19
ATOM     19  O   UNL     1      -5.303   1.079  -2.171  1.00  0.00    -0.504 OA
ATOM     20  H   UNL     1      -4.943   0.289  -1.735  1.00  0.00     0.293 HD
ENDBRANCH   5  19
BRANCH   6  21
ATOM     21  O   UNL     1      -3.012   1.918  -0.878  1.00  0.00    -0.500 OA
ATOM     22  H   UNL     1      -2.714   2.143  -1.773  1.00  0.00     0.294 HD
ENDBRANCH   6  21
TORSDOF 5
ENDMDL
MODEL 3
REMARK VINA RESULT:    -4.843      3.699      6.596
REMARK INTER + INTRA:          -6.748
REMARK INTER:                  -5.813
REMARK INTRA:                  -0.934
REMARK UNBOUND:                -0.772
REMARK SMILES Cc1ccc(C(=O)c2cc(O)c(O)c([N+](=O)[O-])c2)cc1
REMARK SMILES IDX 8 1 18 2 9 3 14 4 10 5 12 6 6 7 7 8 5 9 4 10 19 11 3 12
REMARK SMILES IDX 20 13 2 14 1 15 15 16 17 17 16 18 11 19 13 21
REMARK H PARENT 11 20 13 22
ROOT
ATOM      1  C   UNL     1      -8.152   6.791   1.056  1.00  0.00     0.033 A 
ATOM      2  C   UNL     1      -9.459   6.436   0.814  1.00  0.00     0.102 A 
ATOM      3  C   UNL     1      -7.742   8.099   1.164  1.00  0.00     0.063 A 
ATOM      4  C   UNL     1     -10.410   7.447   0.674  1.00  0.00     0.315 A 
ATOM      5  C   UNL     1      -8.693   9.110   1.023  1.00  0.00     0.165 A 
ATOM      6  C   UNL     1     -10.027   8.784   0.779  1.00  0.00     0.237 A 
ENDROOT
BRANCH   1   7
ATOM      7  C   UNL     1      -7.133   5.709   1.206  1.00  0.00     0.193 C 
ATOM      8  O   UNL     1      -6.513   5.656   2.279  1.00  0.00    -0.289 OA
BRANCH   7   9
ATOM      9  C   UNL     1      -6.860   4.744   0.153  1.00  0.00     0.023 A 
ATOM     10  C   UNL     1      -6.762   5.167  -1.173  1.00  0.00     0.012 A 
ATOM     11  C   UNL     1      -6.696   3.395   0.469  1.00  0.00     0.012 A 
ATOM     12  C   UNL     1      -6.500   4.241  -2.182  1.00  0.00     0.004 A 
ATOM     13  C   UNL     1      -6.434   2.468  -0.541  1.00  0.00     0.004 A 
ATOM     14  C   UNL     1      -6.336   2.891  -1.867  1.00  0.00    -0.051 A 
ATOM     15  C   UNL     1      -6.057   1.902  -2.946  1.00  0.00     0.044 C 
ENDBRANCH   7   9
ENDBRANCH   1   7
BRANCH   4  16
ATOM     16  N   UNL     1     -11.764   7.095   0.425  1.00  0.00     0.066 N 
ATOM     17  O   UNL     1     -12.675   7.756   0.980  1.00  0.00    -0.258 OA
ATOM     18  O   UNL     1     -12.010   6.135  -0.342  1.00  0.00    -0.258 OA
ENDBRANCH   4  16
BRANCH   5  19
ATOM     19  O   UNL     1      -8.305  10.412   1.128  1.00  0.00    -0.504 OA
ATOM     20  H   UNL     1      -7.336  10.467   1.084  1.00  0.00     0.293 HD
ENDBRANCH   5  19
BRANCH   6  21
ATOM     21  O   UNL     1     -10.948   9.782   0.644  1.00  0.00    -0.500 OA
ATOM     22  H   UNL     1     -10.739  10.503   1.257  1.00  0.00     0.294 HD
ENDBRANCH   6  21
TORSDOF 5
ENDMDL
MODEL 4
REMARK VINA RESULT:    -4.808      3.604      7.217
REMARK INTER + INTRA:          -6.704
REMARK INTER:                  -5.749
REMARK INTRA:                  -0.955
REMARK UNBOUND:                -0.772
REMARK SMILES Cc1ccc(C(=O)c2cc(O)c(O)c([N+](=O)[O-])c2)cc1
REMARK SMILES IDX 8 1 18 2 9 3 14 4 10 5 12 6 6 7 7 8 5 9 4 10 19 11 3 12
REMARK SMILES IDX 20 13 2 14 1 15 15 16 17 17 16 18 11 19 13 21
REMARK H PARENT 11 20 13 22
ROOT
ATOM      1  C   UNL     1      -8.731   6.556  -0.486  1.00  0.00     0.033 A 
ATOM      2  C   UNL     1      -8.427   7.821  -0.042  1.00  0.00     0.102 A 
ATOM      3  C   UNL     1      -9.990   6.012  -0.386  1.00  0.00     0.063 A 
ATOM      4  C   UNL     1      -9.440   8.588   0.534  1.00  0.00     0.315 A 
ATOM      5  C   UNL     1     -11.003   6.778   0.191  1.00  0.00     0.165 A 
ATOM      6  C   UNL     1     -10.728   8.067   0.651  1.00  0.00     0.237 A 
ENDROOT
BRANCH   1   7
ATOM      7  C   UNL     1      -7.646   5.735  -1.103  1.00  0.00     0.193 C 
ATOM      8  O   UNL     1      -7.814   5.356  -2.272  1.00  0.00    -0.289 OA
BRANCH   7   9
ATOM      9  C   UNL     1      -6.433   5.380  -0.384  1.00  0.00     0.023 A 
ATOM     10  C   UNL     1      -5.192   5.497  -1.011  1.00  0.00     0.012 A 
ATOM     11  C   UNL     1      -6.509   4.924   0.931  1.00  0.00     0.012 A 
ATOM     12  C   UNL     1      -4.028   5.158  -0.322  1.00  0.00     0.004 A 
ATOM     13  C   UNL     1      -5.344   4.584   1.621  1.00  0.00     0.004 A 
ATOM     14  C   UNL     1      -4.104   4.701   0.994  1.00  0.00    -0.051 A 
ATOM     15  C   UNL     1      -2.859   4.336   1.730  1.00  0.00     0.044 C 
ENDBRANCH   7   9
ENDBRANCH   1   7
BRANCH   4  16
ATOM     16  N   UNL     1      -9.141   9.898   0.998  1.00  0.00     0.066 N 
ATOM     17  O   UNL     1      -8.011  10.122   1.496  1.00  0.00    -0.258 OA
ATOM     18  O   UNL     1     -10.013  10.792   0.893  1.00  0.00    -0.258 OA
ENDBRANCH   4  16
BRANCH   5  19
ATOM     19  O   UNL     1     -12.258   6.256   0.298  1.00  0.00    -0.504 OA
ATOM     20  H   UNL     1     -12.589   6.388   1.202  1.00  0.00     0.293 HD
ENDBRANCH   5  19
BRANCH   6  21
ATOM     21  O   UNL     1     -11.728   8.806   1.213  1.00  0.00    -0.500 OA
ATOM     22  H   UNL     1     -11.733   8.672   2.173  1.00  0.00     0.294 HD
ENDBRANCH   6  21
TORSDOF 5
ENDMDL
MODEL 5
REMARK VINA RESULT:    -4.803      1.678      2.989
REMARK INTER + INTRA:          -6.698
REMARK INTER:                  -6.014
REMARK INTRA:                  -0.684
REMARK UNBOUND:                -0.772
REMARK SMILES Cc1ccc(C(=O)c2cc(O)c(O)c([N+](=O)[O-])c2)cc1
REMARK SMILES IDX 8 1 18 2 9 3 14 4 10 5 12 6 6 7 7 8 5 9 4 10 19 11 3 12
REMARK SMILES IDX 20 13 2 14 1 15 15 16 17 17 16 18 11 19 13 21
REMARK H PARENT 11 20 13 22
ROOT
ATOM      1  C   UNL     1      -5.674   4.219  -1.713  1.00  0.00     0.033 A 
ATOM      2  C   UNL     1      -4.611   4.659  -0.958  1.00  0.00     0.102 A 
ATOM      3  C   UNL     1      -5.882   2.893  -2.008  1.00  0.00     0.063 A 
ATOM      4  C   UNL     1      -3.705   3.717  -0.470  1.00  0.00     0.315 A 
ATOM      5  C   UNL     1      -4.975   1.951  -1.521  1.00  0.00     0.165 A 
ATOM      6  C   UNL     1      -3.887   2.363  -0.751  1.00  0.00     0.237 A 
ENDROOT
BRANCH   1   7
ATOM      7  C   UNL     1      -6.644   5.228  -2.236  1.00  0.00     0.193 C 
ATOM      8  O   UNL     1      -6.505   5.594  -3.413  1.00  0.00    -0.289 OA
BRANCH   7   9
ATOM      9  C   UNL     1      -7.717   5.774  -1.420  1.00  0.00     0.023 A 
ATOM     10  C   UNL     1      -7.555   5.885  -0.039  1.00  0.00     0.012 A 
ATOM     11  C   UNL     1      -8.907   6.188  -2.018  1.00  0.00     0.012 A 
ATOM     12  C   UNL     1      -8.584   6.409   0.743  1.00  0.00     0.004 A 
ATOM     13  C   UNL     1      -9.936   6.712  -1.236  1.00  0.00     0.004 A 
ATOM     14  C   UNL     1      -9.775   6.823   0.145  1.00  0.00    -0.051 A 
ATOM     15  C   UNL     1     -10.875   7.382   0.982  1.00  0.00     0.044 C 
ENDBRANCH   7   9
ENDBRANCH   1   7
BRANCH   4  16
ATOM     16  N   UNL     1      -2.602   4.156   0.313  1.00  0.00     0.066 N 
ATOM     17  O   UNL     1      -1.452   3.748   0.022  1.00  0.00    -0.258 OA
ATOM     18  O   UNL     1      -2.811   4.938   1.270  1.00  0.00    -0.258 OA
ENDBRANCH   4  16
BRANCH   5  19
ATOM     19  O   UNL     1      -5.166   0.632  -1.803  1.00  0.00    -0.504 OA
ATOM     20  H   UNL     1      -5.943   0.531  -2.378  1.00  0.00     0.293 HD
ENDBRANCH   5  19
BRANCH   6  21
ATOM     21  O   UNL     1      -3.008   1.432  -0.279  1.00  0.00    -0.500 OA
ATOM     22  H   UNL     1      -3.399   0.548  -0.352  1.00  0.00     0.294 HD
ENDBRANCH   6  21
TORSDOF 5
ENDMDL
MODEL 6
REMARK VINA RESULT:    -4.719      3.927      7.096
REMARK INTER + INTRA:          -6.594
REMARK INTER:                  -5.789
REMARK INTRA:                  -0.805
REMARK UNBOUND:                -0.772
REMARK SMILES Cc1ccc(C(=O)c2cc(O)c(O)c([N+](=O)[O-])c2)cc1
REMARK SMILES IDX 8 1 18 2 9 3 14 4 10 5 12 6 6 7 7 8 5 9 4 10 19 11 3 12
REMARK SMILES IDX 20 13 2 14 1 15 15 16 17 17 16 18 11 19 13 21
REMARK H PARENT 11 20 13 22
ROOT
ATOM      1  C   UNL     1      -8.712   6.933   0.400  1.00  0.00     0.033 A 
ATOM      2  C   UNL     1     -10.083   7.035   0.446  1.00  0.00     0.102 A 
ATOM      3  C   UNL     1      -7.877   8.010   0.581  1.00  0.00     0.063 A 
ATOM      4  C   UNL     1     -10.651   8.285   0.688  1.00  0.00     0.315 A 
ATOM      5  C   UNL     1      -8.446   9.262   0.822  1.00  0.00     0.165 A 
ATOM      6  C   UNL     1      -9.833   9.399   0.876  1.00  0.00     0.237 A 
ENDROOT
BRANCH   1   7
ATOM      7  C   UNL     1      -8.103   5.594   0.141  1.00  0.00     0.193 C 
ATOM      8  O   UNL     1      -8.828   4.729  -0.374  1.00  0.00    -0.289 OA
BRANCH   7   9
ATOM      9  C   UNL     1      -6.720   5.289   0.470  1.00  0.00     0.023 A 
ATOM     10  C   UNL     1      -6.391   4.826   1.744  1.00  0.00     0.012 A 
ATOM     11  C   UNL     1      -5.721   5.461  -0.488  1.00  0.00     0.012 A 
ATOM     12  C   UNL     1      -5.064   4.534   2.059  1.00  0.00     0.004 A 
ATOM     13  C   UNL     1      -4.393   5.169  -0.174  1.00  0.00     0.004 A 
ATOM     14  C   UNL     1      -4.065   4.705   1.100  1.00  0.00    -0.051 A 
ATOM     15  C   UNL     1      -2.646   4.394   1.438  1.00  0.00     0.044 C 
ENDBRANCH   7   9
ENDBRANCH   1   7
BRANCH   4  16
ATOM     16  N   UNL     1     -12.067   8.406   0.738  1.00  0.00     0.066 N 
ATOM     17  O   UNL     1     -12.747   7.416   1.101  1.00  0.00    -0.258 OA
ATOM     18  O   UNL     1     -12.594   9.498   0.420  1.00  0.00    -0.258 OA
ENDBRANCH   4  16
BRANCH   5  19
ATOM     19  O   UNL     1      -7.634  10.341   1.005  1.00  0.00    -0.504 OA
ATOM     20  H   UNL     1      -7.802  10.730   1.879  1.00  0.00     0.293 HD
ENDBRANCH   5  19
BRANCH   6  21
ATOM     21  O   UNL     1     -10.377  10.628   1.113  1.00  0.00    -0.500 OA
ATOM     22  H   UNL     1     -11.221  10.526   1.580  1.00  0.00     0.294 HD
ENDBRANCH   6  21
TORSDOF 5
ENDMDL
MODEL 7
REMARK VINA RESULT:    -4.705      3.824      7.016
REMARK INTER + INTRA:          -6.577
REMARK INTER:                  -5.602
REMARK INTRA:                  -0.975
REMARK UNBOUND:                -0.772
REMARK SMILES Cc1ccc(C(=O)c2cc(O)c(O)c([N+](=O)[O-])c2)cc1
REMARK SMILES IDX 8 1 18 2 9 3 14 4 10 5 12 6 6 7 7 8 5 9 4 10 19 11 3 12
REMARK SMILES IDX 20 13 2 14 1 15 15 16 17 17 16 18 11 19 13 21
REMARK H PARENT 11 20 13 22
ROOT
ATOM      1  C   UNL     1      -8.287   6.756   0.977  1.00  0.00     0.033 A 
ATOM      2  C   UNL     1      -7.971   8.094   1.028  1.00  0.00     0.102 A 
ATOM      3  C   UNL     1      -9.573   6.299   0.813  1.00  0.00     0.063 A 
ATOM      4  C   UNL     1      -9.000   9.027   0.908  1.00  0.00     0.315 A 
ATOM      5  C   UNL     1     -10.602   7.232   0.693  1.00  0.00     0.165 A 
ATOM      6  C   UNL     1     -10.316   8.597   0.740  1.00  0.00     0.237 A 
ENDROOT
BRANCH   1   7
ATOM      7  C   UNL     1      -7.184   5.756   1.106  1.00  0.00     0.193 C 
ATOM      8  O   UNL     1      -6.503   5.790   2.142  1.00  0.00    -0.289 OA
BRANCH   7   9
ATOM      9  C   UNL     1      -6.900   4.772   0.074  1.00  0.00     0.023 A 
ATOM     10  C   UNL     1      -6.723   3.432   0.418  1.00  0.00     0.012 A 
ATOM     11  C   UNL     1      -6.804   5.167  -1.260  1.00  0.00     0.012 A 
ATOM     12  C   UNL     1      -6.450   2.488  -0.572  1.00  0.00     0.004 A 
ATOM     13  C   UNL     1      -6.531   4.223  -2.251  1.00  0.00     0.004 A 
ATOM     14  C   UNL     1      -6.354   2.883  -1.907  1.00  0.00    -0.051 A 
ATOM     15  C   UNL     1      -6.062   1.874  -2.964  1.00  0.00     0.044 C 
ENDBRANCH   7   9
ENDBRANCH   1   7
BRANCH   4  16
ATOM     16  N   UNL     1      -8.689  10.414   0.959  1.00  0.00     0.066 N 
ATOM     17  O   UNL     1      -9.511  11.201   1.487  1.00  0.00    -0.258 OA
ATOM     18  O   UNL     1      -7.602  10.809   0.476  1.00  0.00    -0.258 OA
ENDBRANCH   4  16
BRANCH   5  19
ATOM     19  O   UNL     1     -11.883   6.797   0.530  1.00  0.00    -0.504 OA
ATOM     20  H   UNL     1     -12.484   7.560   0.494  1.00  0.00     0.293 HD
ENDBRANCH   5  19
BRANCH   6  21
ATOM     21  O   UNL     1     -11.332   9.501   0.622  1.00  0.00    -0.500 OA
ATOM     22  H   UNL     1     -12.184   9.048   0.719  1.00  0.00     0.294 HD
ENDBRANCH   6  21
TORSDOF 5
ENDMDL
MODEL 8
REMARK VINA RESULT:    -4.504      1.950      2.289
REMARK INTER + INTRA:          -6.329
REMARK INTER:                  -5.639
REMARK INTRA:                  -0.690
REMARK UNBOUND:                -0.772
REMARK SMILES Cc1ccc(C(=O)c2cc(O)c(O)c([N+](=O)[O-])c2)cc1
REMARK SMILES IDX 8 1 18 2 9 3 14 4 10 5 12 6 6 7 7 8 5 9 4 10 19 11 3 12
REMARK SMILES IDX 20 13 2 14 1 15 15 16 17 17 16 18 11 19 13 21
REMARK H PARENT 11 20 13 22
ROOT
ATOM      1  C   UNL     1      -6.868   4.235  -0.001  1.00  0.00     0.033 A 
ATOM      2  C   UNL     1      -6.798   3.284  -0.993  1.00  0.00     0.102 A 
ATOM      3  C   UNL     1      -5.805   4.543   0.814  1.00  0.00     0.063 A 
ATOM      4  C   UNL     1      -5.596   2.603  -1.179  1.00  0.00     0.315 A 
ATOM      5  C   UNL     1      -4.603   3.861   0.628  1.00  0.00     0.165 A 
ATOM      6  C   UNL     1      -4.498   2.891  -0.369  1.00  0.00     0.237 A 
ENDROOT
BRANCH   1   7
ATOM      7  C   UNL     1      -8.156   4.965   0.199  1.00  0.00     0.193 C 
ATOM      8  O   UNL     1      -9.197   4.290   0.213  1.00  0.00    -0.289 OA
BRANCH   7   9
ATOM      9  C   UNL     1      -8.216   6.408   0.373  1.00  0.00     0.023 A 
ATOM     10  C   UNL     1      -8.011   6.968   1.634  1.00  0.00     0.012 A 
ATOM     11  C   UNL     1      -8.479   7.232  -0.721  1.00  0.00     0.012 A 
ATOM     12  C   UNL     1      -8.068   8.351   1.800  1.00  0.00     0.004 A 
ATOM     13  C   UNL     1      -8.536   8.616  -0.556  1.00  0.00     0.004 A 
ATOM     14  C   UNL     1      -8.330   9.176   0.706  1.00  0.00    -0.051 A 
ATOM     15  C   UNL     1      -8.393  10.655   0.884  1.00  0.00     0.044 C 
ENDBRANCH   7   9
ENDBRANCH   1   7
BRANCH   4  16
ATOM     16  N   UNL     1      -5.508   1.617  -2.200  1.00  0.00     0.066 N 
ATOM     17  O   UNL     1      -5.736   1.952  -3.388  1.00  0.00    -0.258 OA
ATOM     18  O   UNL     1      -5.205   0.443  -1.884  1.00  0.00    -0.258 OA
ENDBRANCH   4  16
BRANCH   5  19
ATOM     19  O   UNL     1      -3.538   4.153   1.427  1.00  0.00    -0.504 OA
ATOM     20  H   UNL     1      -2.795   4.458   0.880  1.00  0.00     0.293 HD
ENDBRANCH   5  19
BRANCH   6  21
ATOM     21  O   UNL     1      -3.316   2.231  -0.542  1.00  0.00    -0.500 OA
ATOM     22  H   UNL     1      -3.412   1.309  -0.258  1.00  0.00     0.294 HD
ENDBRANCH   6  21
TORSDOF 5
ENDMDL
MODEL 9
REMARK VINA RESULT:    -4.500      1.275      2.919
REMARK INTER + INTRA:          -6.324
REMARK INTER:                  -5.619
REMARK INTRA:                  -0.705
REMARK UNBOUND:                -0.772
REMARK SMILES Cc1ccc(C(=O)c2cc(O)c(O)c([N+](=O)[O-])c2)cc1
REMARK SMILES IDX 8 1 18 2 9 3 14 4 10 5 12 6 6 7 7 8 5 9 4 10 19 11 3 12
REMARK SMILES IDX 20 13 2 14 1 15 15 16 17 17 16 18 11 19 13 21
REMARK H PARENT 11 20 13 22
ROOT
ATOM      1  C   UNL     1      -5.889   5.417  -0.337  1.00  0.00     0.033 A 
ATOM      2  C   UNL     1      -4.724   5.264   0.380  1.00  0.00     0.102 A 
ATOM      3  C   UNL     1      -6.293   4.526  -1.303  1.00  0.00     0.063 A 
ATOM      4  C   UNL     1      -3.919   4.157   0.115  1.00  0.00     0.315 A 
ATOM      5  C   UNL     1      -5.487   3.419  -1.569  1.00  0.00     0.165 A 
ATOM      6  C   UNL     1      -4.299   3.234  -0.859  1.00  0.00     0.237 A 
ENDROOT
BRANCH   1   7
ATOM      7  C   UNL     1      -6.752   6.603  -0.053  1.00  0.00     0.193 C 
ATOM      8  O   UNL     1      -6.191   7.706   0.035  1.00  0.00    -0.289 OA
BRANCH   7   9
ATOM      9  C   UNL     1      -8.192   6.497   0.116  1.00  0.00     0.023 A 
ATOM     10  C   UNL     1      -9.028   6.503  -1.001  1.00  0.00     0.012 A 
ATOM     11  C   UNL     1      -8.738   6.388   1.395  1.00  0.00     0.012 A 
ATOM     12  C   UNL     1     -10.409   6.400  -0.838  1.00  0.00     0.004 A 
ATOM     13  C   UNL     1     -10.120   6.286   1.558  1.00  0.00     0.004 A 
ATOM     14  C   UNL     1     -10.956   6.292   0.441  1.00  0.00    -0.051 A 
ATOM     15  C   UNL     1     -12.433   6.184   0.615  1.00  0.00     0.044 C 
ENDBRANCH   7   9
ENDBRANCH   1   7
BRANCH   4  16
ATOM     16  N   UNL     1      -2.712   3.985   0.848  1.00  0.00     0.066 N 
ATOM     17  O   UNL     1      -2.769   3.911   2.099  1.00  0.00    -0.258 OA
ATOM     18  O   UNL     1      -1.629   3.912   0.223  1.00  0.00    -0.258 OA
ENDBRANCH   4  16
BRANCH   5  19
ATOM     19  O   UNL     1      -5.871   2.525  -2.522  1.00  0.00    -0.504 OA
ATOM     20  H   UNL     1      -6.207   1.719  -2.097  1.00  0.00     0.293 HD
ENDBRANCH   5  19
BRANCH   6  21
ATOM     21  O   UNL     1      -3.520   2.146  -1.127  1.00  0.00    -0.500 OA
ATOM     22  H   UNL     1      -2.927   2.345  -1.869  1.00  0.00     0.294 HD
ENDBRANCH   6  21
TORSDOF 5
ENDMDL
