MODEL 1
REMARK VINA RESULT:    -5.168      0.000      0.000
REMARK INTER + INTRA:          -7.309
REMARK INTER:                  -6.376
REMARK INTRA:                  -0.933
REMARK UNBOUND:                -0.933
REMARK SMILES Cc1ccc(C(=O)c2cc(O)c(O)c([N+](=O)[O-])c2)cc1
REMARK SMILES IDX 8 1 18 2 9 3 14 4 10 5 12 6 6 7 7 8 5 9 4 10 19 11 3 12
REMARK SMILES IDX 20 13 2 14 1 15 15 16 17 17 16 18 11 19 13 21
REMARK H PARENT 11 20 13 22
ROOT
ATOM      1  C   UNL     1      -0.268  -7.459  -3.948  1.00  0.00     0.033 A 
ATOM      2  C   UNL     1       0.800  -7.787  -3.145  1.00  0.00     0.102 A 
ATOM      3  C   UNL     1      -1.018  -6.322  -3.765  1.00  0.00     0.063 A 
ATOM      4  C   UNL     1       1.138  -6.926  -2.100  1.00  0.00     0.315 A 
ATOM      5  C   UNL     1      -0.681  -5.462  -2.719  1.00  0.00     0.165 A 
ATOM      6  C   UNL     1       0.398  -5.764  -1.887  1.00  0.00     0.237 A 
ENDROOT
BRANCH   1   7
ATOM      7  C   UNL     1      -0.629  -8.380  -5.067  1.00  0.00     0.193 C 
ATOM      8  O   UNL     1      -0.748  -7.883  -6.197  1.00  0.00    -0.289 OA
BRANCH   7   9
ATOM      9  C   UNL     1      -0.838  -9.805  -4.867  1.00  0.00     0.023 A 
ATOM     10  C   UNL     1      -2.075 -10.273  -4.421  1.00  0.00     0.012 A 
ATOM     11  C   UNL     1       0.197 -10.705  -5.122  1.00  0.00     0.012 A 
ATOM     12  C   UNL     1      -2.275 -11.640  -4.230  1.00  0.00     0.004 A 
ATOM     13  C   UNL     1      -0.003 -12.072  -4.931  1.00  0.00     0.004 A 
ATOM     14  C   UNL     1      -1.239 -12.540  -4.485  1.00  0.00    -0.051 A 
ATOM     15  C   UNL     1      -1.453 -14.001  -4.279  1.00  0.00     0.044 C 
ENDBRANCH   7   9
ENDBRANCH   1   7
BRANCH   4  16
ATOM     16  N   UNL     1       2.240  -7.251  -1.262  1.00  0.00     0.066 N 
ATOM     17  O   UNL     1       3.249  -7.796  -1.772  1.00  0.00    -0.258 OA
ATOM     18  O   UNL     1       2.171  -6.984  -0.040  1.00  0.00    -0.258 OA
ENDBRANCH   4  16
BRANCH   5  19
ATOM     19  O   UNL     1      -1.413  -4.329  -2.523  1.00  0.00    -0.504 OA
ATOM     20  H   UNL     1      -1.863  -4.377  -1.663  1.00  0.00     0.293 HD
ENDBRANCH   5  19
BRANCH   6  21
ATOM     21  O   UNL     1       0.718  -4.914  -0.868  1.00  0.00    -0.500 OA
ATOM     22  H   UNL     1       1.675  -4.938  -0.713  1.00  0.00     0.294 HD
ENDBRANCH   6  21
TORSDOF 5
ENDMDL
MODEL 2
REMARK VINA RESULT:    -5.156      2.093      3.505
REMARK INTER + INTRA:          -7.295
REMARK INTER:                  -6.362
REMARK INTRA:                  -0.933
REMARK UNBOUND:                -0.933
REMARK SMILES Cc1ccc(C(=O)c2cc(O)c(O)c([N+](=O)[O-])c2)cc1
REMARK SMILES IDX 8 1 18 2 9 3 14 4 10 5 12 6 6 7 7 8 5 9 4 10 19 11 3 12
REMARK SMILES IDX 20 13 2 14 1 15 15 16 17 17 16 18 11 19 13 21
REMARK H PARENT 11 20 13 22
ROOT
ATOM      1  C   UNL     1      -0.278  -8.467  -2.420  1.00  0.00     0.033 A 
ATOM      2  C   UNL     1      -1.125  -7.438  -2.760  1.00  0.00     0.102 A 
ATOM      3  C   UNL     1       0.895  -8.272  -1.730  1.00  0.00     0.063 A 
ATOM      4  C   UNL     1      -0.779  -6.139  -2.387  1.00  0.00     0.315 A 
ATOM      5  C   UNL     1       1.242  -6.972  -1.358  1.00  0.00     0.165 A 
ATOM      6  C   UNL     1       0.404  -5.906  -1.686  1.00  0.00     0.237 A 
ENDROOT
BRANCH   1   7
ATOM      7  C   UNL     1      -0.648  -9.859  -2.819  1.00  0.00     0.193 C 
ATOM      8  O   UNL     1      -0.650 -10.724  -1.930  1.00  0.00    -0.289 OA
BRANCH   7   9
ATOM      9  C   UNL     1      -0.995 -10.211  -4.186  1.00  0.00     0.023 A 
ATOM     10  C   UNL     1       0.010 -10.487  -5.113  1.00  0.00     0.012 A 
ATOM     11  C   UNL     1      -2.334 -10.274  -4.571  1.00  0.00     0.012 A 
ATOM     12  C   UNL     1      -0.324 -10.825  -6.424  1.00  0.00     0.004 A 
ATOM     13  C   UNL     1      -2.669 -10.613  -5.883  1.00  0.00     0.004 A 
ATOM     14  C   UNL     1      -1.663 -10.889  -6.810  1.00  0.00    -0.051 A 
ATOM     15  C   UNL     1      -2.020 -11.249  -8.211  1.00  0.00     0.044 C 
ENDBRANCH   7   9
ENDBRANCH   1   7
BRANCH   4  16
ATOM     16  N   UNL     1      -1.645  -5.065  -2.731  1.00  0.00     0.066 N 
ATOM     17  O   UNL     1      -1.144  -3.961  -3.051  1.00  0.00    -0.258 OA
ATOM     18  O   UNL     1      -2.884  -5.254  -2.705  1.00  0.00    -0.258 OA
ENDBRANCH   4  16
BRANCH   5  19
ATOM     19  O   UNL     1       2.400  -6.759  -0.674  1.00  0.00    -0.504 OA
ATOM     20  H   UNL     1       3.069  -7.405  -0.957  1.00  0.00     0.293 HD
ENDBRANCH   5  19
BRANCH   6  21
ATOM     21  O   UNL     1       0.753  -4.639  -1.316  1.00  0.00    -0.500 OA
ATOM     22  H   UNL     1       0.872  -4.090  -2.107  1.00  0.00     0.294 HD
ENDBRANCH   6  21
TORSDOF 5
ENDMDL
MODEL 3
REMARK VINA RESULT:    -4.775      1.728      2.976
REMARK INTER + INTRA:          -6.825
REMARK INTER:                  -6.341
REMARK INTRA:                  -0.484
REMARK UNBOUND:                -0.933
REMARK SMILES Cc1ccc(C(=O)c2cc(O)c(O)c([N+](=O)[O-])c2)cc1
REMARK SMILES IDX 8 1 18 2 9 3 14 4 10 5 12 6 6 7 7 8 5 9 4 10 19 11 3 12
REMARK SMILES IDX 20 13 2 14 1 15 15 16 17 17 16 18 11 19 13 21
REMARK H PARENT 11 20 13 22
ROOT
ATOM      1  C   UNL     1       1.213  -7.613  -3.178  1.00  0.00     0.033 A 
ATOM      2  C   UNL     1       0.280  -6.661  -3.521  1.00  0.00     0.102 A 
ATOM      3  C   UNL     1       1.831  -7.643  -1.951  1.00  0.00     0.063 A 
ATOM      4  C   UNL     1      -0.053  -5.685  -2.583  1.00  0.00     0.315 A 
ATOM      5  C   UNL     1       1.499  -6.666  -1.012  1.00  0.00     0.165 A 
ATOM      6  C   UNL     1       0.556  -5.687  -1.328  1.00  0.00     0.237 A 
ENDROOT
BRANCH   1   7
ATOM      7  C   UNL     1       1.570  -8.659  -4.183  1.00  0.00     0.193 C 
ATOM      8  O   UNL     1       2.705  -8.606  -4.680  1.00  0.00    -0.289 OA
BRANCH   7   9
ATOM      9  C   UNL     1       0.643  -9.707  -4.580  1.00  0.00     0.023 A 
ATOM     10  C   UNL     1      -0.712  -9.596  -4.268  1.00  0.00     0.012 A 
ATOM     11  C   UNL     1       1.109 -10.824  -5.273  1.00  0.00     0.012 A 
ATOM     12  C   UNL     1      -1.600 -10.601  -4.649  1.00  0.00     0.004 A 
ATOM     13  C   UNL     1       0.221 -11.830  -5.655  1.00  0.00     0.004 A 
ATOM     14  C   UNL     1      -1.134 -11.719  -5.343  1.00  0.00    -0.051 A 
ATOM     15  C   UNL     1      -2.084 -12.794  -5.748  1.00  0.00     0.044 C 
ENDBRANCH   7   9
ENDBRANCH   1   7
BRANCH   4  16
ATOM     16  N   UNL     1      -1.015  -4.695  -2.923  1.00  0.00     0.066 N 
ATOM     17  O   UNL     1      -2.169  -5.061  -3.255  1.00  0.00    -0.258 OA
ATOM     18  O   UNL     1      -0.684  -3.488  -2.880  1.00  0.00    -0.258 OA
ENDBRANCH   4  16
BRANCH   5  19
ATOM     19  O   UNL     1       2.102  -6.680   0.210  1.00  0.00    -0.504 OA
ATOM     20  H   UNL     1       3.063  -6.593   0.100  1.00  0.00     0.293 HD
ENDBRANCH   5  19
BRANCH   6  21
ATOM     21  O   UNL     1       0.239  -4.736  -0.401  1.00  0.00    -0.500 OA
ATOM     22  H   UNL     1      -0.674  -4.867  -0.100  1.00  0.00     0.294 HD
ENDBRANCH   6  21
TORSDOF 5
ENDMDL
MODEL 4
REMARK VINA RESULT:    -4.775      1.687      1.961
REMARK INTER + INTRA:          -6.825
REMARK INTER:                  -6.332
REMARK INTRA:                  -0.493
REMARK UNBOUND:                -0.933
REMARK SMILES Cc1ccc(C(=O)c2cc(O)c(O)c([N+](=O)[O-])c2)cc1
REMARK SMILES IDX 8 1 18 2 9 3 14 4 10 5 12 6 6 7 7 8 5 9 4 10 19 11 3 12
REMARK SMILES IDX 20 13 2 14 1 15 15 16 17 17 16 18 11 19 13 21
REMARK H PARENT 11 20 13 22
ROOT
ATOM      1  C   UNL     1      -1.415  -7.250  -2.479  1.00  0.00     0.033 A 
ATOM      2  C   UNL     1      -0.305  -7.633  -1.763  1.00  0.00     0.102 A 
ATOM      3  C   UNL     1      -1.635  -5.953  -2.879  1.00  0.00     0.063 A 
ATOM      4  C   UNL     1       0.640  -6.663  -1.428  1.00  0.00     0.315 A 
ATOM      5  C   UNL     1      -0.690  -4.983  -2.544  1.00  0.00     0.165 A 
ATOM      6  C   UNL     1       0.448  -5.338  -1.818  1.00  0.00     0.237 A 
ENDROOT
BRANCH   1   7
ATOM      7  C   UNL     1      -2.427  -8.289  -2.838  1.00  0.00     0.193 C 
ATOM      8  O   UNL     1      -3.527  -8.232  -2.267  1.00  0.00    -0.289 OA
BRANCH   7   9
ATOM      9  C   UNL     1      -2.160  -9.333  -3.813  1.00  0.00     0.023 A 
ATOM     10  C   UNL     1      -3.217 -10.055  -4.370  1.00  0.00     0.012 A 
ATOM     11  C   UNL     1      -0.848  -9.614  -4.193  1.00  0.00     0.012 A 
ATOM     12  C   UNL     1      -2.961 -11.057  -5.305  1.00  0.00     0.004 A 
ATOM     13  C   UNL     1      -0.591 -10.617  -5.129  1.00  0.00     0.004 A 
ATOM     14  C   UNL     1      -1.648 -11.338  -5.686  1.00  0.00    -0.051 A 
ATOM     15  C   UNL     1      -1.374 -12.410  -6.685  1.00  0.00     0.044 C 
ENDBRANCH   7   9
ENDBRANCH   1   7
BRANCH   4  16
ATOM     16  N   UNL     1       1.793  -7.043  -0.688  1.00  0.00     0.066 N 
ATOM     17  O   UNL     1       2.023  -6.478   0.408  1.00  0.00    -0.258 OA
ATOM     18  O   UNL     1       2.544  -7.933  -1.151  1.00  0.00    -0.258 OA
ENDBRANCH   4  16
BRANCH   5  19
ATOM     19  O   UNL     1      -0.891  -3.692  -2.933  1.00  0.00    -0.504 OA
ATOM     20  H   UNL     1      -0.636  -3.589  -3.864  1.00  0.00     0.293 HD
ENDBRANCH   5  19
BRANCH   6  21
ATOM     21  O   UNL     1       1.365  -4.380  -1.497  1.00  0.00    -0.500 OA
ATOM     22  H   UNL     1       2.166  -4.799  -1.147  1.00  0.00     0.294 HD
ENDBRANCH   6  21
TORSDOF 5
ENDMDL
MODEL 5
REMARK VINA RESULT:    -4.676      2.015      2.756
REMARK INTER + INTRA:          -6.703
REMARK INTER:                  -5.901
REMARK INTRA:                  -0.801
REMARK UNBOUND:                -0.933
REMARK SMILES Cc1ccc(C(=O)c2cc(O)c(O)c([N+](=O)[O-])c2)cc1
REMARK SMILES IDX 8 1 18 2 9 3 14 4 10 5 12 6 6 7 7 8 5 9 4 10 19 11 3 12
REMARK SMILES IDX 20 13 2 14 1 15 15 16 17 17 16 18 11 19 13 21
REMARK H PARENT 11 20 13 22
ROOT
ATOM      1  C   UNL     1      -0.565  -8.116  -3.626  1.00  0.00     0.033 A 
ATOM      2  C   UNL     1       0.065  -6.920  -3.371  1.00  0.00     0.102 A 
ATOM      3  C   UNL     1      -1.889  -8.339  -3.332  1.00  0.00     0.063 A 
ATOM      4  C   UNL     1      -0.672  -5.888  -2.790  1.00  0.00     0.315 A 
ATOM      5  C   UNL     1      -2.626  -7.308  -2.749  1.00  0.00     0.165 A 
ATOM      6  C   UNL     1      -2.018  -6.082  -2.478  1.00  0.00     0.237 A 
ENDROOT
BRANCH   1   7
ATOM      7  C   UNL     1       0.225  -9.221  -4.249  1.00  0.00     0.193 C 
ATOM      8  O   UNL     1       1.460  -9.157  -4.161  1.00  0.00    -0.289 OA
BRANCH   7   9
ATOM      9  C   UNL     1      -0.405 -10.337  -4.936  1.00  0.00     0.023 A 
ATOM     10  C   UNL     1      -0.489 -11.582  -4.313  1.00  0.00     0.012 A 
ATOM     11  C   UNL     1      -0.924 -10.163  -6.219  1.00  0.00     0.012 A 
ATOM     12  C   UNL     1      -1.093 -12.652  -4.972  1.00  0.00     0.004 A 
ATOM     13  C   UNL     1      -1.528 -11.234  -6.879  1.00  0.00     0.004 A 
ATOM     14  C   UNL     1      -1.613 -12.479  -6.255  1.00  0.00    -0.051 A 
ATOM     15  C   UNL     1      -2.257 -13.624  -6.960  1.00  0.00     0.044 C 
ENDBRANCH   7   9
ENDBRANCH   1   7
BRANCH   4  16
ATOM     16  N   UNL     1      -0.035  -4.646  -2.521  1.00  0.00     0.066 N 
ATOM     17  O   UNL     1       1.053  -4.646  -1.895  1.00  0.00    -0.258 OA
ATOM     18  O   UNL     1      -0.577  -3.588  -2.917  1.00  0.00    -0.258 OA
ENDBRANCH   4  16
BRANCH   5  19
ATOM     19  O   UNL     1      -3.940  -7.512  -2.451  1.00  0.00    -0.504 OA
ATOM     20  H   UNL     1      -4.302  -8.204  -3.029  1.00  0.00     0.293 HD
ENDBRANCH   5  19
BRANCH   6  21
ATOM     21  O   UNL     1      -2.749  -5.081  -1.909  1.00  0.00    -0.500 OA
ATOM     22  H   UNL     1      -3.478  -4.834  -2.499  1.00  0.00     0.294 HD
ENDBRANCH   6  21
TORSDOF 5
ENDMDL
MODEL 6
REMARK VINA RESULT:    -4.448      1.966      2.300
REMARK INTER + INTRA:          -6.421
REMARK INTER:                  -5.643
REMARK INTRA:                  -0.778
REMARK UNBOUND:                -0.933
REMARK SMILES Cc1ccc(C(=O)c2cc(O)c(O)c([N+](=O)[O-])c2)cc1
REMARK SMILES IDX 8 1 18 2 9 3 14 4 10 5 12 6 6 7 7 8 5 9 4 10 19 11 3 12
REMARK SMILES IDX 20 13 2 14 1 15 15 16 17 17 16 18 11 19 13 21
REMARK H PARENT 11 20 13 22
ROOT
ATOM      1  C   UNL     1      -0.508  -8.826  -2.737  1.00  0.00     0.033 A 
ATOM      2  C   UNL     1       0.671  -8.594  -2.067  1.00  0.00     0.102 A 
ATOM      3  C   UNL     1      -1.444  -7.845  -2.961  1.00  0.00     0.063 A 
ATOM      4  C   UNL     1       0.928  -7.306  -1.597  1.00  0.00     0.315 A 
ATOM      5  C   UNL     1      -1.188  -6.557  -2.490  1.00  0.00     0.165 A 
ATOM      6  C   UNL     1      -0.001  -6.288  -1.807  1.00  0.00     0.237 A 
ENDROOT
BRANCH   1   7
ATOM      7  C   UNL     1      -0.783 -10.205  -3.241  1.00  0.00     0.193 C 
ATOM      8  O   UNL     1      -0.663 -11.140  -2.435  1.00  0.00    -0.289 OA
BRANCH   7   9
ATOM      9  C   UNL     1      -1.178 -10.468  -4.616  1.00  0.00     0.023 A 
ATOM     10  C   UNL     1      -2.529 -10.492  -4.961  1.00  0.00     0.012 A 
ATOM     11  C   UNL     1      -0.205 -10.697  -5.589  1.00  0.00     0.012 A 
ATOM     12  C   UNL     1      -2.907 -10.744  -6.280  1.00  0.00     0.004 A 
ATOM     13  C   UNL     1      -0.583 -10.949  -6.909  1.00  0.00     0.004 A 
ATOM     14  C   UNL     1      -1.934 -10.973  -7.254  1.00  0.00    -0.051 A 
ATOM     15  C   UNL     1      -2.339 -11.243  -8.663  1.00  0.00     0.044 C 
ENDBRANCH   7   9
ENDBRANCH   1   7
BRANCH   4  16
ATOM     16  N   UNL     1       2.143  -7.050  -0.903  1.00  0.00     0.066 N 
ATOM     17  O   UNL     1       2.090  -6.633   0.279  1.00  0.00    -0.258 OA
ATOM     18  O   UNL     1       3.231  -7.250  -1.492  1.00  0.00    -0.258 OA
ENDBRANCH   4  16
BRANCH   5  19
ATOM     19  O   UNL     1      -2.105  -5.572  -2.703  1.00  0.00    -0.504 OA
ATOM     20  H   UNL     1      -2.562  -5.368  -1.871  1.00  0.00     0.293 HD
ENDBRANCH   5  19
BRANCH   6  21
ATOM     21  O   UNL     1       0.239  -5.024  -1.352  1.00  0.00    -0.500 OA
ATOM     22  H   UNL     1      -0.506  -4.448  -1.581  1.00  0.00     0.294 HD
ENDBRANCH   6  21
TORSDOF 5
ENDMDL
MODEL 7
REMARK VINA RESULT:    -4.445      1.270      2.891
REMARK INTER + INTRA:          -6.418
REMARK INTER:                  -5.631
REMARK INTRA:                  -0.787
REMARK UNBOUND:                -0.933
REMARK SMILES Cc1ccc(C(=O)c2cc(O)c(O)c([N+](=O)[O-])c2)cc1
REMARK SMILES IDX 8 1 18 2 9 3 14 4 10 5 12 6 6 7 7 8 5 9 4 10 19 11 3 12
REMARK SMILES IDX 20 13 2 14 1 15 15 16 17 17 16 18 11 19 13 21
REMARK H PARENT 11 20 13 22
ROOT
ATOM      1  C   UNL     1      -0.301  -7.964  -4.180  1.00  0.00     0.033 A 
ATOM      2  C   UNL     1      -1.044  -6.828  -3.957  1.00  0.00     0.102 A 
ATOM      3  C   UNL     1       0.856  -8.245  -3.493  1.00  0.00     0.063 A 
ATOM      4  C   UNL     1      -0.605  -5.923  -2.991  1.00  0.00     0.315 A 
ATOM      5  C   UNL     1       1.296  -7.340  -2.527  1.00  0.00     0.165 A 
ATOM      6  C   UNL     1       0.564  -6.178  -2.275  1.00  0.00     0.237 A 
ENDROOT
BRANCH   1   7
ATOM      7  C   UNL     1      -0.770  -8.933  -5.215  1.00  0.00     0.193 C 
ATOM      8  O   UNL     1      -1.051  -8.479  -6.335  1.00  0.00    -0.289 OA
BRANCH   7   9
ATOM      9  C   UNL     1      -0.902 -10.356  -4.948  1.00  0.00     0.023 A 
ATOM     10  C   UNL     1       0.171 -11.214  -5.192  1.00  0.00     0.012 A 
ATOM     11  C   UNL     1      -2.101 -10.864  -4.448  1.00  0.00     0.012 A 
ATOM     12  C   UNL     1       0.045 -12.579  -4.935  1.00  0.00     0.004 A 
ATOM     13  C   UNL     1      -2.227 -12.230  -4.190  1.00  0.00     0.004 A 
ATOM     14  C   UNL     1      -1.155 -13.088  -4.434  1.00  0.00    -0.051 A 
ATOM     15  C   UNL     1      -1.289 -14.547  -4.161  1.00  0.00     0.044 C 
ENDBRANCH   7   9
ENDBRANCH   1   7
BRANCH   4  16
ATOM     16  N   UNL     1      -1.363  -4.744  -2.749  1.00  0.00     0.066 N 
ATOM     17  O   UNL     1      -0.812  -3.627  -2.898  1.00  0.00    -0.258 OA
ATOM     18  O   UNL     1      -2.560  -4.856  -2.394  1.00  0.00    -0.258 OA
ENDBRANCH   4  16
BRANCH   5  19
ATOM     19  O   UNL     1       2.440  -7.603  -1.836  1.00  0.00    -0.504 OA
ATOM     20  H   UNL     1       2.836  -8.428  -2.163  1.00  0.00     0.293 HD
ENDBRANCH   5  19
BRANCH   6  21
ATOM     21  O   UNL     1       1.004  -5.301  -1.327  1.00  0.00    -0.500 OA
ATOM     22  H   UNL     1       0.609  -4.428  -1.482  1.00  0.00     0.294 HD
ENDBRANCH   6  21
TORSDOF 5
ENDMDL
MODEL 8
REMARK VINA RESULT:    -4.426      4.263      7.320
REMARK INTER + INTRA:          -6.394
REMARK INTER:                  -5.610
REMARK INTRA:                  -0.784
REMARK UNBOUND:                -0.933
REMARK SMILES Cc1ccc(C(=O)c2cc(O)c(O)c([N+](=O)[O-])c2)cc1
REMARK SMILES IDX 8 1 18 2 9 3 14 4 10 5 12 6 6 7 7 8 5 9 4 10 19 11 3 12
REMARK SMILES IDX 20 13 2 14 1 15 15 16 17 17 16 18 11 19 13 21
REMARK H PARENT 11 20 13 22
ROOT
ATOM      1  C   UNL     1      -1.241 -11.666  -5.113  1.00  0.00     0.033 A 
ATOM      2  C   UNL     1      -1.683 -12.452  -6.152  1.00  0.00     0.102 A 
ATOM      3  C   UNL     1      -0.869 -12.181  -3.894  1.00  0.00     0.063 A 
ATOM      4  C   UNL     1      -1.756 -13.832  -5.961  1.00  0.00     0.315 A 
ATOM      5  C   UNL     1      -0.942 -13.561  -3.702  1.00  0.00     0.165 A 
ATOM      6  C   UNL     1      -1.385 -14.387  -4.736  1.00  0.00     0.237 A 
ENDROOT
BRANCH   1   7
ATOM      7  C   UNL     1      -1.163 -10.188  -5.318  1.00  0.00     0.193 C 
ATOM      8  O   UNL     1      -1.565  -9.742  -6.403  1.00  0.00    -0.289 OA
BRANCH   7   9
ATOM      9  C   UNL     1      -0.642  -9.287  -4.303  1.00  0.00     0.023 A 
ATOM     10  C   UNL     1      -1.482  -8.810  -3.296  1.00  0.00     0.012 A 
ATOM     11  C   UNL     1       0.697  -8.899  -4.335  1.00  0.00     0.012 A 
ATOM     12  C   UNL     1      -0.982  -7.946  -2.323  1.00  0.00     0.004 A 
ATOM     13  C   UNL     1       1.198  -8.035  -3.361  1.00  0.00     0.004 A 
ATOM     14  C   UNL     1       0.358  -7.558  -2.354  1.00  0.00    -0.051 A 
ATOM     15  C   UNL     1       0.891  -6.633  -1.314  1.00  0.00     0.044 C 
ENDBRANCH   7   9
ENDBRANCH   1   7
BRANCH   4  16
ATOM     16  N   UNL     1      -2.210 -14.657  -7.026  1.00  0.00     0.066 N 
ATOM     17  O   UNL     1      -2.818 -15.719  -6.752  1.00  0.00    -0.258 OA
ATOM     18  O   UNL     1      -1.990 -14.298  -8.206  1.00  0.00    -0.258 OA
ENDBRANCH   4  16
BRANCH   5  19
ATOM     19  O   UNL     1      -0.577 -14.089  -2.501  1.00  0.00    -0.504 OA
ATOM     20  H   UNL     1       0.267 -14.560  -2.595  1.00  0.00     0.293 HD
ENDBRANCH   5  19
BRANCH   6  21
ATOM     21  O   UNL     1      -1.452 -15.735  -4.537  1.00  0.00    -0.500 OA
ATOM     22  H   UNL     1      -1.487 -15.922  -3.586  1.00  0.00     0.294 HD
ENDBRANCH   6  21
TORSDOF 5
ENDMDL
MODEL 9
REMARK VINA RESULT:    -4.421      4.157      7.268
REMARK INTER + INTRA:          -6.388
REMARK INTER:                  -5.607
REMARK INTRA:                  -0.781
REMARK UNBOUND:                -0.933
REMARK SMILES Cc1ccc(C(=O)c2cc(O)c(O)c([N+](=O)[O-])c2)cc1
REMARK SMILES IDX 8 1 18 2 9 3 14 4 10 5 12 6 6 7 7 8 5 9 4 10 19 11 3 12
REMARK SMILES IDX 20 13 2 14 1 15 15 16 17 17 16 18 11 19 13 21
REMARK H PARENT 11 20 13 22
ROOT
ATOM      1  C   UNL     1      -1.476 -11.144  -5.790  1.00  0.00     0.033 A 
ATOM      2  C   UNL     1      -1.702 -12.455  -6.137  1.00  0.00     0.102 A 
ATOM      3  C   UNL     1      -1.677 -10.097  -6.658  1.00  0.00     0.063 A 
ATOM      4  C   UNL     1      -2.155 -12.736  -7.426  1.00  0.00     0.315 A 
ATOM      5  C   UNL     1      -2.130 -10.377  -7.948  1.00  0.00     0.165 A 
ATOM      6  C   UNL     1      -2.369 -11.697  -8.331  1.00  0.00     0.237 A 
ENDROOT
BRANCH   1   7
ATOM      7  C   UNL     1      -0.991 -10.843  -4.409  1.00  0.00     0.193 C 
ATOM      8  O   UNL     1      -0.757 -11.808  -3.666  1.00  0.00    -0.289 OA
BRANCH   7   9
ATOM      9  C   UNL     1      -0.790  -9.484  -3.932  1.00  0.00     0.023 A 
ATOM     10  C   UNL     1      -1.803  -8.837  -3.224  1.00  0.00     0.012 A 
ATOM     11  C   UNL     1       0.415  -8.828  -4.181  1.00  0.00     0.012 A 
ATOM     12  C   UNL     1      -1.611  -7.534  -2.766  1.00  0.00     0.004 A 
ATOM     13  C   UNL     1       0.608  -7.524  -3.723  1.00  0.00     0.004 A 
ATOM     14  C   UNL     1      -0.405  -6.877  -3.015  1.00  0.00    -0.051 A 
ATOM     15  C   UNL     1      -0.201  -5.483  -2.527  1.00  0.00     0.044 C 
ENDBRANCH   7   9
ENDBRANCH   1   7
BRANCH   4  16
ATOM     16  N   UNL     1      -2.393 -14.087  -7.799  1.00  0.00     0.066 N 
ATOM     17  O   UNL     1      -2.227 -14.424  -8.996  1.00  0.00    -0.258 OA
ATOM     18  O   UNL     1      -2.762 -14.902  -6.921  1.00  0.00    -0.258 OA
ENDBRANCH   4  16
BRANCH   5  19
ATOM     19  O   UNL     1      -2.335  -9.352  -8.822  1.00  0.00    -0.504 OA
ATOM     20  H   UNL     1      -2.159  -9.657  -9.727  1.00  0.00     0.293 HD
ENDBRANCH   5  19
BRANCH   6  21
ATOM     21  O   UNL     1      -2.813 -11.959  -9.595  1.00  0.00    -0.500 OA
ATOM     22  H   UNL     1      -2.061 -12.187 -10.164  1.00  0.00     0.294 HD
ENDBRANCH   6  21
TORSDOF 5
ENDMDL
