MODEL 1
REMARK VINA RESULT:    -6.732      0.000      0.000
REMARK INTER + INTRA:          -8.569
REMARK INTER:                  -7.913
REMARK INTRA:                  -0.656
REMARK UNBOUND:                -0.656
REMARK SMILES O=C(O)c1cc(-c2ccc(F)cc2F)ccc1O
REMARK SMILES IDX 6 1 5 2 15 3 4 4 17 5 16 6 7 7 13 8 12 9 8 10 10 11 9 12
REMARK SMILES IDX 14 13 11 14 2 15 1 16 3 17 18 19
REMARK H PARENT 3 18 18 20
ROOT
ATOM      1  C   UNL     1      -7.385  -3.189   3.690  1.00  0.00    -0.014 A 
ATOM      2  C   UNL     1      -7.434  -1.869   3.246  1.00  0.00     0.028 A 
ATOM      3  C   UNL     1      -6.160  -3.851   3.778  1.00  0.00     0.013 A 
ATOM      4  C   UNL     1      -6.258  -1.208   2.890  1.00  0.00     0.102 A 
ATOM      5  C   UNL     1      -5.033  -1.869   2.978  1.00  0.00     0.130 A 
ATOM      6  C   UNL     1      -4.984  -3.191   3.422  1.00  0.00     0.048 A 
ENDROOT
BRANCH   1   7
ATOM      7  C   UNL     1      -8.605  -3.876   4.058  1.00  0.00     0.018 A 
ATOM      8  C   UNL     1      -9.529  -3.258   4.901  1.00  0.00     0.133 A 
ATOM      9  C   UNL     1     -10.703  -3.924   5.254  1.00  0.00     0.079 A 
ATOM     10  C   UNL     1      -8.856  -5.157   3.567  1.00  0.00     0.015 A 
ATOM     11  C   UNL     1     -10.954  -5.205   4.764  1.00  0.00     0.126 A 
ATOM     12  C   UNL     1     -10.030  -5.821   3.919  1.00  0.00     0.040 A 
ATOM     13  F   UNL     1      -9.301  -2.028   5.384  1.00  0.00    -0.206 F 
ATOM     14  F   UNL     1     -12.081  -5.844   5.102  1.00  0.00    -0.207 F 
ENDBRANCH   1   7
BRANCH   4  15
ATOM     15  C   UNL     1      -6.330   0.172   2.429  1.00  0.00     0.339 C 
ATOM     16  O   UNL     1      -5.756   0.624   1.436  1.00  0.00    -0.246 OA
BRANCH  15  17
ATOM     17  O   UNL     1      -7.120   0.943   3.226  1.00  0.00    -0.478 OA
ATOM     18  H   UNL     1      -7.000   0.730   4.175  1.00  0.00     0.297 HD
ENDBRANCH  15  17
ENDBRANCH   4  15
BRANCH   5  19
ATOM     19  O   UNL     1      -3.872  -1.241   2.635  1.00  0.00    -0.507 OA
ATOM     20  H   UNL     1      -3.175  -1.908   2.514  1.00  0.00     0.293 HD
ENDBRANCH   5  19
TORSDOF 4
ENDMDL
MODEL 2
REMARK VINA RESULT:    -6.727      1.815      3.307
REMARK INTER + INTRA:          -8.563
REMARK INTER:                  -7.894
REMARK INTRA:                  -0.668
REMARK UNBOUND:                -0.656
REMARK SMILES O=C(O)c1cc(-c2ccc(F)cc2F)ccc1O
REMARK SMILES IDX 6 1 5 2 15 3 4 4 17 5 16 6 7 7 13 8 12 9 8 10 10 11 9 12
REMARK SMILES IDX 14 13 11 14 2 15 1 16 3 17 18 19
REMARK H PARENT 3 18 18 20
ROOT
ATOM      1  C   UNL     1      -7.364  -3.475   3.528  1.00  0.00    -0.014 A 
ATOM      2  C   UNL     1      -6.211  -4.251   3.643  1.00  0.00     0.028 A 
ATOM      3  C   UNL     1      -7.283  -2.178   3.023  1.00  0.00     0.013 A 
ATOM      4  C   UNL     1      -4.977  -3.731   3.253  1.00  0.00     0.102 A 
ATOM      5  C   UNL     1      -4.897  -2.433   2.747  1.00  0.00     0.130 A 
ATOM      6  C   UNL     1      -6.050  -1.656   2.632  1.00  0.00     0.048 A 
ENDROOT
BRANCH   1   7
ATOM      7  C   UNL     1      -8.644  -4.014   3.935  1.00  0.00     0.018 A 
ATOM      8  C   UNL     1      -9.044  -5.277   3.494  1.00  0.00     0.133 A 
ATOM      9  C   UNL     1     -10.279  -5.792   3.888  1.00  0.00     0.079 A 
ATOM     10  C   UNL     1      -9.477  -3.270   4.769  1.00  0.00     0.015 A 
ATOM     11  C   UNL     1     -11.113  -5.048   4.721  1.00  0.00     0.126 A 
ATOM     12  C   UNL     1     -10.711  -3.786   5.162  1.00  0.00     0.040 A 
ATOM     13  F   UNL     1      -8.256  -6.004   2.690  1.00  0.00    -0.206 F 
ATOM     14  F   UNL     1     -12.298  -5.542   5.100  1.00  0.00    -0.207 F 
ENDBRANCH   1   7
BRANCH   4  15
ATOM     15  C   UNL     1      -3.785  -4.558   3.381  1.00  0.00     0.339 C 
ATOM     16  O   UNL     1      -2.716  -4.197   3.880  1.00  0.00    -0.246 OA
BRANCH  15  17
ATOM     17  O   UNL     1      -3.968  -5.810   2.881  1.00  0.00    -0.478 OA
ATOM     18  H   UNL     1      -3.526  -5.925   2.014  1.00  0.00     0.297 HD
ENDBRANCH  15  17
ENDBRANCH   4  15
BRANCH   5  19
ATOM     19  O   UNL     1      -3.701  -1.906   2.360  1.00  0.00    -0.507 OA
ATOM     20  H   UNL     1      -3.422  -2.330   1.529  1.00  0.00     0.293 HD
ENDBRANCH   5  19
TORSDOF 4
ENDMDL
MODEL 3
REMARK VINA RESULT:    -6.634      1.130      1.623
REMARK INTER + INTRA:          -8.454
REMARK INTER:                  -7.850
REMARK INTRA:                  -0.604
REMARK UNBOUND:                -0.656
REMARK SMILES O=C(O)c1cc(-c2ccc(F)cc2F)ccc1O
REMARK SMILES IDX 6 1 5 2 15 3 4 4 17 5 16 6 7 7 13 8 12 9 8 10 10 11 9 12
REMARK SMILES IDX 14 13 11 14 2 15 1 16 3 17 18 19
REMARK H PARENT 3 18 18 20
ROOT
ATOM      1  C   UNL     1      -7.332  -3.301   3.635  1.00  0.00    -0.014 A 
ATOM      2  C   UNL     1      -7.355  -1.967   3.231  1.00  0.00     0.028 A 
ATOM      3  C   UNL     1      -6.122  -3.994   3.685  1.00  0.00     0.013 A 
ATOM      4  C   UNL     1      -6.168  -1.324   2.877  1.00  0.00     0.102 A 
ATOM      5  C   UNL     1      -4.959  -2.017   2.926  1.00  0.00     0.130 A 
ATOM      6  C   UNL     1      -4.936  -3.353   3.330  1.00  0.00     0.048 A 
ENDROOT
BRANCH   1   7
ATOM      7  C   UNL     1      -8.562  -3.969   4.002  1.00  0.00     0.018 A 
ATOM      8  C   UNL     1      -8.847  -5.239   3.499  1.00  0.00     0.133 A 
ATOM      9  C   UNL     1     -10.035  -5.878   3.855  1.00  0.00     0.079 A 
ATOM     10  C   UNL     1      -9.463  -3.340   4.861  1.00  0.00     0.015 A 
ATOM     11  C   UNL     1     -10.936  -5.250   4.713  1.00  0.00     0.126 A 
ATOM     12  C   UNL     1     -10.649  -3.981   5.217  1.00  0.00     0.040 A 
ATOM     13  F   UNL     1      -7.993  -5.855   2.669  1.00  0.00    -0.206 F 
ATOM     14  F   UNL     1     -12.076  -5.863   5.056  1.00  0.00    -0.207 F 
ENDBRANCH   1   7
BRANCH   4  15
ATOM     15  C   UNL     1      -6.214   0.070   2.458  1.00  0.00     0.339 C 
ATOM     16  O   UNL     1      -5.707   0.523   1.429  1.00  0.00    -0.246 OA
BRANCH  15  17
ATOM     17  O   UNL     1      -6.893   0.854   3.339  1.00  0.00    -0.478 OA
ATOM     18  H   UNL     1      -6.556   1.774   3.343  1.00  0.00     0.297 HD
ENDBRANCH  15  17
ENDBRANCH   4  15
BRANCH   5  19
ATOM     19  O   UNL     1      -3.788  -1.408   2.584  1.00  0.00    -0.507 OA
ATOM     20  H   UNL     1      -3.063  -2.053   2.650  1.00  0.00     0.293 HD
ENDBRANCH   5  19
TORSDOF 4
ENDMDL
MODEL 4
REMARK VINA RESULT:    -5.419      1.175      1.447
REMARK INTER + INTRA:          -7.026
REMARK INTER:                  -6.301
REMARK INTRA:                  -0.725
REMARK UNBOUND:                -0.656
REMARK SMILES O=C(O)c1cc(-c2ccc(F)cc2F)ccc1O
REMARK SMILES IDX 6 1 5 2 15 3 4 4 17 5 16 6 7 7 13 8 12 9 8 10 10 11 9 12
REMARK SMILES IDX 14 13 11 14 2 15 1 16 3 17 18 19
REMARK H PARENT 3 18 18 20
ROOT
ATOM      1  C   UNL     1      -7.779  -3.647   3.661  1.00  0.00    -0.014 A 
ATOM      2  C   UNL     1      -7.708  -2.273   3.436  1.00  0.00     0.028 A 
ATOM      3  C   UNL     1      -6.655  -4.446   3.451  1.00  0.00     0.013 A 
ATOM      4  C   UNL     1      -6.514  -1.697   3.001  1.00  0.00     0.102 A 
ATOM      5  C   UNL     1      -5.391  -2.496   2.791  1.00  0.00     0.130 A 
ATOM      6  C   UNL     1      -5.461  -3.872   3.017  1.00  0.00     0.048 A 
ENDROOT
BRANCH   1   7
ATOM      7  C   UNL     1      -9.017  -4.245   4.111  1.00  0.00     0.018 A 
ATOM      8  C   UNL     1     -10.218  -3.933   3.472  1.00  0.00     0.133 A 
ATOM      9  C   UNL     1     -11.410  -4.512   3.909  1.00  0.00     0.079 A 
ATOM     10  C   UNL     1      -9.009  -5.135   5.184  1.00  0.00     0.015 A 
ATOM     11  C   UNL     1     -11.401  -5.401   4.983  1.00  0.00     0.126 A 
ATOM     12  C   UNL     1     -10.200  -5.713   5.620  1.00  0.00     0.040 A 
ATOM     13  F   UNL     1     -10.244  -3.078   2.440  1.00  0.00    -0.206 F 
ATOM     14  F   UNL     1     -12.545  -5.957   5.403  1.00  0.00    -0.207 F 
ENDBRANCH   1   7
BRANCH   4  15
ATOM     15  C   UNL     1      -6.461  -0.259   2.773  1.00  0.00     0.339 C 
ATOM     16  O   UNL     1      -6.981   0.597   3.491  1.00  0.00    -0.246 OA
BRANCH  15  17
ATOM     17  O   UNL     1      -5.758   0.062   1.653  1.00  0.00    -0.478 OA
ATOM     18  H   UNL     1      -6.144   0.834   1.189  1.00  0.00     0.297 HD
ENDBRANCH  15  17
ENDBRANCH   4  15
BRANCH   5  19
ATOM     19  O   UNL     1      -4.214  -1.953   2.367  1.00  0.00    -0.507 OA
ATOM     20  H   UNL     1      -3.998  -2.312   1.489  1.00  0.00     0.293 HD
ENDBRANCH   5  19
TORSDOF 4
ENDMDL
MODEL 5
REMARK VINA RESULT:    -5.227      4.153      6.472
REMARK INTER + INTRA:          -6.801
REMARK INTER:                  -5.727
REMARK INTRA:                  -1.074
REMARK UNBOUND:                -0.656
REMARK SMILES O=C(O)c1cc(-c2ccc(F)cc2F)ccc1O
REMARK SMILES IDX 6 1 5 2 15 3 4 4 17 5 16 6 7 7 13 8 12 9 8 10 10 11 9 12
REMARK SMILES IDX 14 13 11 14 2 15 1 16 3 17 18 19
REMARK H PARENT 3 18 18 20
ROOT
ATOM      1  C   UNL     1      -9.617  -4.582   4.328  1.00  0.00    -0.014 A 
ATOM      2  C   UNL     1     -10.791  -4.188   3.688  1.00  0.00     0.028 A 
ATOM      3  C   UNL     1      -9.666  -5.513   5.365  1.00  0.00     0.013 A 
ATOM      4  C   UNL     1     -12.016  -4.725   4.085  1.00  0.00     0.102 A 
ATOM      5  C   UNL     1     -12.066  -5.656   5.122  1.00  0.00     0.130 A 
ATOM      6  C   UNL     1     -10.890  -6.051   5.763  1.00  0.00     0.048 A 
ENDROOT
BRANCH   1   7
ATOM      7  C   UNL     1      -8.346  -4.024   3.918  1.00  0.00     0.018 A 
ATOM      8  C   UNL     1      -7.539  -4.712   3.011  1.00  0.00     0.133 A 
ATOM      9  C   UNL     1      -6.314  -4.171   2.619  1.00  0.00     0.079 A 
ATOM     10  C   UNL     1      -7.930  -2.795   4.430  1.00  0.00     0.015 A 
ATOM     11  C   UNL     1      -5.898  -2.943   3.131  1.00  0.00     0.126 A 
ATOM     12  C   UNL     1      -6.706  -2.255   4.036  1.00  0.00     0.040 A 
ATOM     13  F   UNL     1      -7.923  -5.895   2.512  1.00  0.00    -0.206 F 
ATOM     14  F   UNL     1      -4.723  -2.423   2.755  1.00  0.00    -0.207 F 
ENDBRANCH   1   7
BRANCH   4  15
ATOM     15  C   UNL     1     -13.232  -4.301   3.404  1.00  0.00     0.339 C 
ATOM     16  O   UNL     1     -14.381  -4.572   3.759  1.00  0.00    -0.246 OA
BRANCH  15  17
ATOM     17  O   UNL     1     -12.971  -3.550   2.299  1.00  0.00    -0.478 OA
ATOM     18  H   UNL     1     -12.050  -3.669   1.986  1.00  0.00     0.297 HD
ENDBRANCH  15  17
ENDBRANCH   4  15
BRANCH   5  19
ATOM     19  O   UNL     1     -13.252  -6.194   5.525  1.00  0.00    -0.507 OA
ATOM     20  H   UNL     1     -13.528  -6.871   4.883  1.00  0.00     0.293 HD
ENDBRANCH   5  19
TORSDOF 4
ENDMDL
MODEL 6
REMARK VINA RESULT:    -5.222      4.369      6.711
REMARK INTER + INTRA:          -6.794
REMARK INTER:                  -5.724
REMARK INTRA:                  -1.071
REMARK UNBOUND:                -0.656
REMARK SMILES O=C(O)c1cc(-c2ccc(F)cc2F)ccc1O
REMARK SMILES IDX 6 1 5 2 15 3 4 4 17 5 16 6 7 7 13 8 12 9 8 10 10 11 9 12
REMARK SMILES IDX 14 13 11 14 2 15 1 16 3 17 18 19
REMARK H PARENT 3 18 18 20
ROOT
ATOM      1  C   UNL     1      -9.741  -4.352   4.315  1.00  0.00    -0.014 A 
ATOM      2  C   UNL     1      -9.769  -5.316   5.322  1.00  0.00     0.028 A 
ATOM      3  C   UNL     1     -10.913  -4.020   3.635  1.00  0.00     0.013 A 
ATOM      4  C   UNL     1     -10.968  -5.949   5.650  1.00  0.00     0.102 A 
ATOM      5  C   UNL     1     -12.140  -5.616   4.970  1.00  0.00     0.130 A 
ATOM      6  C   UNL     1     -12.112  -4.651   3.962  1.00  0.00     0.048 A 
ENDROOT
BRANCH   1   7
ATOM      7  C   UNL     1      -8.497  -3.697   3.973  1.00  0.00     0.018 A 
ATOM      8  C   UNL     1      -8.180  -2.459   4.534  1.00  0.00     0.133 A 
ATOM      9  C   UNL     1      -6.980  -1.831   4.202  1.00  0.00     0.079 A 
ATOM     10  C   UNL     1      -7.614  -4.306   3.082  1.00  0.00     0.015 A 
ATOM     11  C   UNL     1      -6.097  -2.439   3.310  1.00  0.00     0.126 A 
ATOM     12  C   UNL     1      -6.414  -3.677   2.751  1.00  0.00     0.040 A 
ATOM     13  F   UNL     1      -9.019  -1.860   5.391  1.00  0.00    -0.206 F 
ATOM     14  F   UNL     1      -4.945  -1.836   2.991  1.00  0.00    -0.207 F 
ENDBRANCH   1   7
BRANCH   4  15
ATOM     15  C   UNL     1     -10.976  -6.953   6.705  1.00  0.00     0.339 C 
ATOM     16  O   UNL     1     -11.868  -7.783   6.893  1.00  0.00    -0.246 OA
BRANCH  15  17
ATOM     17  O   UNL     1      -9.867  -6.888   7.491  1.00  0.00    -0.478 OA
ATOM     18  H   UNL     1      -9.056  -6.724   6.964  1.00  0.00     0.297 HD
ENDBRANCH  15  17
ENDBRANCH   4  15
BRANCH   5  19
ATOM     19  O   UNL     1     -13.322  -6.222   5.276  1.00  0.00    -0.507 OA
ATOM     20  H   UNL     1     -13.614  -5.923   6.155  1.00  0.00     0.293 HD
ENDBRANCH   5  19
TORSDOF 4
ENDMDL
MODEL 7
REMARK VINA RESULT:    -5.214      4.034      6.307
REMARK INTER + INTRA:          -6.785
REMARK INTER:                  -5.701
REMARK INTRA:                  -1.084
REMARK UNBOUND:                -0.656
REMARK SMILES O=C(O)c1cc(-c2ccc(F)cc2F)ccc1O
REMARK SMILES IDX 6 1 5 2 15 3 4 4 17 5 16 6 7 7 13 8 12 9 8 10 10 11 9 12
REMARK SMILES IDX 14 13 11 14 2 15 1 16 3 17 18 19
REMARK H PARENT 3 18 18 20
ROOT
ATOM      1  C   UNL     1      -9.748  -4.335   4.348  1.00  0.00    -0.014 A 
ATOM      2  C   UNL     1     -10.934  -4.092   3.657  1.00  0.00     0.028 A 
ATOM      3  C   UNL     1      -9.725  -5.261   5.391  1.00  0.00     0.013 A 
ATOM      4  C   UNL     1     -12.099  -4.775   4.009  1.00  0.00     0.102 A 
ATOM      5  C   UNL     1     -12.076  -5.701   5.052  1.00  0.00     0.130 A 
ATOM      6  C   UNL     1     -10.888  -5.944   5.743  1.00  0.00     0.048 A 
ENDROOT
BRANCH   1   7
ATOM      7  C   UNL     1      -8.539  -3.627   3.984  1.00  0.00     0.018 A 
ATOM      8  C   UNL     1      -8.255  -2.387   4.558  1.00  0.00     0.133 A 
ATOM      9  C   UNL     1      -7.090  -1.707   4.204  1.00  0.00     0.079 A 
ATOM     10  C   UNL     1      -7.658  -4.187   3.060  1.00  0.00     0.015 A 
ATOM     11  C   UNL     1      -6.209  -2.266   3.279  1.00  0.00     0.126 A 
ATOM     12  C   UNL     1      -6.493  -3.506   2.708  1.00  0.00     0.040 A 
ATOM     13  F   UNL     1      -9.094  -1.833   5.445  1.00  0.00    -0.206 F 
ATOM     14  F   UNL     1      -5.089  -1.614   2.940  1.00  0.00    -0.207 F 
ENDBRANCH   1   7
BRANCH   4  15
ATOM     15  C   UNL     1     -13.328  -4.507   3.275  1.00  0.00     0.339 C 
ATOM     16  O   UNL     1     -14.371  -5.159   3.366  1.00  0.00    -0.246 OA
BRANCH  15  17
ATOM     17  O   UNL     1     -13.215  -3.431   2.450  1.00  0.00    -0.478 OA
ATOM     18  H   UNL     1     -13.459  -3.651   1.527  1.00  0.00     0.297 HD
ENDBRANCH  15  17
ENDBRANCH   4  15
BRANCH   5  19
ATOM     19  O   UNL     1     -13.203  -6.379   5.411  1.00  0.00    -0.507 OA
ATOM     20  H   UNL     1     -13.521  -6.036   6.264  1.00  0.00     0.293 HD
ENDBRANCH   5  19
TORSDOF 4
ENDMDL
MODEL 8
REMARK VINA RESULT:    -5.201      4.534      6.899
REMARK INTER + INTRA:          -6.770
REMARK INTER:                  -5.701
REMARK INTRA:                  -1.069
REMARK UNBOUND:                -0.656
REMARK SMILES O=C(O)c1cc(-c2ccc(F)cc2F)ccc1O
REMARK SMILES IDX 6 1 5 2 15 3 4 4 17 5 16 6 7 7 13 8 12 9 8 10 10 11 9 12
REMARK SMILES IDX 14 13 11 14 2 15 1 16 3 17 18 19
REMARK H PARENT 3 18 18 20
ROOT
ATOM      1  C   UNL     1      -9.581  -4.508   4.253  1.00  0.00    -0.014 A 
ATOM      2  C   UNL     1      -9.691  -5.450   5.275  1.00  0.00     0.028 A 
ATOM      3  C   UNL     1     -10.718  -4.098   3.557  1.00  0.00     0.013 A 
ATOM      4  C   UNL     1     -10.939  -5.982   5.602  1.00  0.00     0.102 A 
ATOM      5  C   UNL     1     -12.076  -5.571   4.906  1.00  0.00     0.130 A 
ATOM      6  C   UNL     1     -11.965  -4.629   3.883  1.00  0.00     0.048 A 
ENDROOT
BRANCH   1   7
ATOM      7  C   UNL     1      -8.287  -3.957   3.912  1.00  0.00     0.018 A 
ATOM      8  C   UNL     1      -7.446  -4.637   3.030  1.00  0.00     0.133 A 
ATOM      9  C   UNL     1      -6.199  -4.102   2.705  1.00  0.00     0.079 A 
ATOM     10  C   UNL     1      -7.882  -2.743   4.466  1.00  0.00     0.015 A 
ATOM     11  C   UNL     1      -5.794  -2.889   3.260  1.00  0.00     0.126 A 
ATOM     12  C   UNL     1      -6.636  -2.209   4.140  1.00  0.00     0.040 A 
ATOM     13  F   UNL     1      -7.819  -5.806   2.491  1.00  0.00    -0.206 F 
ATOM     14  F   UNL     1      -4.597  -2.375   2.948  1.00  0.00    -0.207 F 
ENDBRANCH   1   7
BRANCH   4  15
ATOM     15  C   UNL     1     -11.033  -6.964   6.673  1.00  0.00     0.339 C 
ATOM     16  O   UNL     1     -11.951  -7.775   6.819  1.00  0.00    -0.246 OA
BRANCH  15  17
ATOM     17  O   UNL     1      -9.976  -6.902   7.528  1.00  0.00    -0.478 OA
ATOM     18  H   UNL     1      -9.257  -6.334   7.178  1.00  0.00     0.297 HD
ENDBRANCH  15  17
ENDBRANCH   4  15
BRANCH   5  19
ATOM     19  O   UNL     1     -13.304  -6.078   5.210  1.00  0.00    -0.507 OA
ATOM     20  H   UNL     1     -13.331  -6.296   6.158  1.00  0.00     0.293 HD
ENDBRANCH   5  19
TORSDOF 4
ENDMDL
MODEL 9
REMARK VINA RESULT:    -4.805      1.730      2.323
REMARK INTER + INTRA:          -6.304
REMARK INTER:                  -5.315
REMARK INTRA:                  -0.989
REMARK UNBOUND:                -0.656
REMARK SMILES O=C(O)c1cc(-c2ccc(F)cc2F)ccc1O
REMARK SMILES IDX 6 1 5 2 15 3 4 4 17 5 16 6 7 7 13 8 12 9 8 10 10 11 9 12
REMARK SMILES IDX 14 13 11 14 2 15 1 16 3 17 18 19
REMARK H PARENT 3 18 18 20
ROOT
ATOM      1  C   UNL     1      -8.884  -4.292   4.039  1.00  0.00    -0.014 A 
ATOM      2  C   UNL     1      -8.693  -2.945   4.346  1.00  0.00     0.028 A 
ATOM      3  C   UNL     1      -8.027  -4.931   3.143  1.00  0.00     0.013 A 
ATOM      4  C   UNL     1      -7.645  -2.237   3.757  1.00  0.00     0.102 A 
ATOM      5  C   UNL     1      -6.788  -2.876   2.861  1.00  0.00     0.130 A 
ATOM      6  C   UNL     1      -6.979  -4.224   2.554  1.00  0.00     0.048 A 
ENDROOT
BRANCH   1   7
ATOM      7  C   UNL     1      -9.971  -5.027   4.648  1.00  0.00     0.018 A 
ATOM      8  C   UNL     1     -11.286  -4.800   4.240  1.00  0.00     0.133 A 
ATOM      9  C   UNL     1     -12.331  -5.511   4.830  1.00  0.00     0.079 A 
ATOM     10  C   UNL     1      -9.702  -5.965   5.645  1.00  0.00     0.015 A 
ATOM     11  C   UNL     1     -12.062  -6.448   5.827  1.00  0.00     0.126 A 
ATOM     12  C   UNL     1     -10.747  -6.675   6.234  1.00  0.00     0.040 A 
ATOM     13  F   UNL     1     -11.561  -3.901   3.285  1.00  0.00    -0.206 F 
ATOM     14  F   UNL     1     -13.065  -7.131   6.395  1.00  0.00    -0.207 F 
ENDBRANCH   1   7
BRANCH   4  15
ATOM     15  C   UNL     1      -7.463  -0.831   4.092  1.00  0.00     0.339 C 
ATOM     16  O   UNL     1      -7.038   0.036   3.324  1.00  0.00    -0.246 OA
BRANCH  15  17
ATOM     17  O   UNL     1      -7.819  -0.553   5.375  1.00  0.00    -0.478 OA
ATOM     18  H   UNL     1      -7.118  -0.057   5.849  1.00  0.00     0.297 HD
ENDBRANCH  15  17
ENDBRANCH   4  15
BRANCH   5  19
ATOM     19  O   UNL     1      -5.759  -2.202   2.275  1.00  0.00    -0.507 OA
ATOM     20  H   UNL     1      -5.907  -1.245   2.376  1.00  0.00     0.293 HD
ENDBRANCH   5  19
TORSDOF 4
ENDMDL
