MODEL 1
REMARK VINA RESULT:    -5.407      0.000      0.000
REMARK INTER + INTRA:          -7.465
REMARK INTER:                  -6.672
REMARK INTRA:                  -0.793
REMARK UNBOUND:                -0.793
REMARK SMILES Cc1ccc(C(=O)c2cc(O)c(O)c([N+](=O)[O-])c2)cc1
REMARK SMILES IDX 8 1 18 2 9 3 14 4 10 5 12 6 6 7 7 8 5 9 4 10 19 11 3 12
REMARK SMILES IDX 20 13 2 14 1 15 15 16 17 17 16 18 11 19 13 21
REMARK H PARENT 11 20 13 22
ROOT
ATOM      1  C   UNL     1      -7.533  -2.844   2.766  1.00  0.00     0.033 A 
ATOM      2  C   UNL     1      -6.547  -3.742   3.103  1.00  0.00     0.102 A 
ATOM      3  C   UNL     1      -7.266  -1.552   2.381  1.00  0.00     0.063 A 
ATOM      4  C   UNL     1      -5.217  -3.324   3.051  1.00  0.00     0.315 A 
ATOM      5  C   UNL     1      -5.936  -1.133   2.329  1.00  0.00     0.165 A 
ATOM      6  C   UNL     1      -4.911  -2.019   2.664  1.00  0.00     0.237 A 
ENDROOT
BRANCH   1   7
ATOM      7  C   UNL     1      -8.957  -3.292   2.822  1.00  0.00     0.193 C 
ATOM      8  O   UNL     1      -9.725  -2.859   1.950  1.00  0.00    -0.289 OA
BRANCH   7   9
ATOM      9  C   UNL     1      -9.449  -4.200   3.846  1.00  0.00     0.023 A 
ATOM     10  C   UNL     1     -10.012  -3.691   5.017  1.00  0.00     0.012 A 
ATOM     11  C   UNL     1      -9.359  -5.579   3.659  1.00  0.00     0.012 A 
ATOM     12  C   UNL     1     -10.484  -4.561   5.999  1.00  0.00     0.004 A 
ATOM     13  C   UNL     1      -9.832  -6.450   4.641  1.00  0.00     0.004 A 
ATOM     14  C   UNL     1     -10.394  -5.941   5.812  1.00  0.00    -0.051 A 
ATOM     15  C   UNL     1     -10.898  -6.871   6.863  1.00  0.00     0.044 C 
ENDBRANCH   7   9
ENDBRANCH   1   7
BRANCH   4  16
ATOM     16  N   UNL     1      -4.187  -4.241   3.396  1.00  0.00     0.066 N 
ATOM     17  O   UNL     1      -4.370  -5.464   3.188  1.00  0.00    -0.258 OA
ATOM     18  O   UNL     1      -3.127  -3.800   3.898  1.00  0.00    -0.258 OA
ENDBRANCH   4  16
BRANCH   5  19
ATOM     19  O   UNL     1      -5.652   0.144   1.949  1.00  0.00    -0.504 OA
ATOM     20  H   UNL     1      -6.474   0.660   1.900  1.00  0.00     0.293 HD
ENDBRANCH   5  19
BRANCH   6  21
ATOM     21  O   UNL     1      -3.615  -1.598   2.609  1.00  0.00    -0.500 OA
ATOM     22  H   UNL     1      -3.518  -0.775   3.113  1.00  0.00     0.294 HD
ENDBRANCH   6  21
TORSDOF 5
ENDMDL
MODEL 2
REMARK VINA RESULT:    -5.370      2.022      3.523
REMARK INTER + INTRA:          -7.420
REMARK INTER:                  -6.627
REMARK INTRA:                  -0.793
REMARK UNBOUND:                -0.793
REMARK SMILES Cc1ccc(C(=O)c2cc(O)c(O)c([N+](=O)[O-])c2)cc1
REMARK SMILES IDX 8 1 18 2 9 3 14 4 10 5 12 6 6 7 7 8 5 9 4 10 19 11 3 12
REMARK SMILES IDX 20 13 2 14 1 15 15 16 17 17 16 18 11 19 13 21
REMARK H PARENT 11 20 13 22
ROOT
ATOM      1  C   UNL     1      -6.745  -3.577   4.369  1.00  0.00     0.033 A 
ATOM      2  C   UNL     1      -7.032  -2.319   3.894  1.00  0.00     0.102 A 
ATOM      3  C   UNL     1      -5.507  -4.160   4.240  1.00  0.00     0.063 A 
ATOM      4  C   UNL     1      -6.021  -1.601   3.255  1.00  0.00     0.315 A 
ATOM      5  C   UNL     1      -4.496  -3.443   3.600  1.00  0.00     0.165 A 
ATOM      6  C   UNL     1      -4.753  -2.162   3.107  1.00  0.00     0.237 A 
ENDROOT
BRANCH   1   7
ATOM      7  C   UNL     1      -7.828  -4.346   5.055  1.00  0.00     0.193 C 
ATOM      8  O   UNL     1      -7.513  -4.997   6.062  1.00  0.00    -0.289 OA
BRANCH   7   9
ATOM      9  C   UNL     1      -9.202  -4.348   4.581  1.00  0.00     0.023 A 
ATOM     10  C   UNL     1      -9.641  -5.350   3.715  1.00  0.00     0.012 A 
ATOM     11  C   UNL     1     -10.083  -3.348   4.992  1.00  0.00     0.012 A 
ATOM     12  C   UNL     1     -10.959  -5.352   3.261  1.00  0.00     0.004 A 
ATOM     13  C   UNL     1     -11.403  -3.349   4.538  1.00  0.00     0.004 A 
ATOM     14  C   UNL     1     -11.841  -4.352   3.672  1.00  0.00    -0.051 A 
ATOM     15  C   UNL     1     -13.250  -4.353   3.186  1.00  0.00     0.044 C 
ENDBRANCH   7   9
ENDBRANCH   1   7
BRANCH   4  16
ATOM     16  N   UNL     1      -6.302  -0.298   2.759  1.00  0.00     0.066 N 
ATOM     17  O   UNL     1      -5.816   0.048   1.655  1.00  0.00    -0.258 OA
ATOM     18  O   UNL     1      -7.028   0.465   3.438  1.00  0.00    -0.258 OA
ENDBRANCH   4  16
BRANCH   5  19
ATOM     19  O   UNL     1      -3.262  -4.004   3.463  1.00  0.00    -0.504 OA
ATOM     20  H   UNL     1      -3.164  -4.361   2.565  1.00  0.00     0.293 HD
ENDBRANCH   5  19
BRANCH   6  21
ATOM     21  O   UNL     1      -3.756  -1.471   2.483  1.00  0.00    -0.500 OA
ATOM     22  H   UNL     1      -3.666  -1.781   1.569  1.00  0.00     0.294 HD
ENDBRANCH   6  21
TORSDOF 5
ENDMDL
MODEL 3
REMARK VINA RESULT:    -5.000      1.664      2.945
REMARK INTER + INTRA:          -6.963
REMARK INTER:                  -6.264
REMARK INTRA:                  -0.698
REMARK UNBOUND:                -0.793
REMARK SMILES Cc1ccc(C(=O)c2cc(O)c(O)c([N+](=O)[O-])c2)cc1
REMARK SMILES IDX 8 1 18 2 9 3 14 4 10 5 12 6 6 7 7 8 5 9 4 10 19 11 3 12
REMARK SMILES IDX 20 13 2 14 1 15 15 16 17 17 16 18 11 19 13 21
REMARK H PARENT 11 20 13 22
ROOT
ATOM      1  C   UNL     1      -6.379  -3.997   2.555  1.00  0.00     0.033 A 
ATOM      2  C   UNL     1      -6.694  -2.713   2.176  1.00  0.00     0.102 A 
ATOM      3  C   UNL     1      -5.164  -4.337   3.102  1.00  0.00     0.063 A 
ATOM      4  C   UNL     1      -5.740  -1.712   2.356  1.00  0.00     0.315 A 
ATOM      5  C   UNL     1      -4.209  -3.336   3.281  1.00  0.00     0.165 A 
ATOM      6  C   UNL     1      -4.497  -2.023   2.908  1.00  0.00     0.237 A 
ENDROOT
BRANCH   1   7
ATOM      7  C   UNL     1      -7.401  -5.070   2.363  1.00  0.00     0.193 C 
ATOM      8  O   UNL     1      -7.295  -5.783   1.354  1.00  0.00    -0.289 OA
BRANCH   7   9
ATOM      9  C   UNL     1      -8.486  -5.291   3.306  1.00  0.00     0.023 A 
ATOM     10  C   UNL     1      -8.945  -4.240   4.100  1.00  0.00     0.012 A 
ATOM     11  C   UNL     1      -9.068  -6.554   3.416  1.00  0.00     0.012 A 
ATOM     12  C   UNL     1      -9.985  -4.453   5.004  1.00  0.00     0.004 A 
ATOM     13  C   UNL     1     -10.109  -6.767   4.320  1.00  0.00     0.004 A 
ATOM     14  C   UNL     1     -10.568  -5.716   5.115  1.00  0.00    -0.051 A 
ATOM     15  C   UNL     1     -11.679  -5.943   6.082  1.00  0.00     0.044 C 
ENDBRANCH   7   9
ENDBRANCH   1   7
BRANCH   4  16
ATOM     16  N   UNL     1      -6.051  -0.379   1.969  1.00  0.00     0.066 N 
ATOM     17  O   UNL     1      -7.141   0.120   2.339  1.00  0.00    -0.258 OA
ATOM     18  O   UNL     1      -5.228   0.257   1.271  1.00  0.00    -0.258 OA
ENDBRANCH   4  16
BRANCH   5  19
ATOM     19  O   UNL     1      -3.000  -3.655   3.822  1.00  0.00    -0.504 OA
ATOM     20  H   UNL     1      -2.403  -2.891   3.755  1.00  0.00     0.293 HD
ENDBRANCH   5  19
BRANCH   6  21
ATOM     21  O   UNL     1      -3.555  -1.052   3.088  1.00  0.00    -0.500 OA
ATOM     22  H   UNL     1      -3.493  -0.829   4.030  1.00  0.00     0.294 HD
ENDBRANCH   6  21
TORSDOF 5
ENDMDL
MODEL 4
REMARK VINA RESULT:    -4.888      3.642      7.157
REMARK INTER + INTRA:          -6.825
REMARK INTER:                  -5.876
REMARK INTRA:                  -0.948
REMARK UNBOUND:                -0.793
REMARK SMILES Cc1ccc(C(=O)c2cc(O)c(O)c([N+](=O)[O-])c2)cc1
REMARK SMILES IDX 8 1 18 2 9 3 14 4 10 5 12 6 6 7 7 8 5 9 4 10 19 11 3 12
REMARK SMILES IDX 20 13 2 14 1 15 15 16 17 17 16 18 11 19 13 21
REMARK H PARENT 11 20 13 22
ROOT
ATOM      1  C   UNL     1      -9.791  -5.398   4.155  1.00  0.00     0.033 A 
ATOM      2  C   UNL     1     -10.990  -4.910   3.689  1.00  0.00     0.102 A 
ATOM      3  C   UNL     1      -9.694  -6.211   5.259  1.00  0.00     0.063 A 
ATOM      4  C   UNL     1     -12.159  -5.255   4.367  1.00  0.00     0.315 A 
ATOM      5  C   UNL     1     -10.864  -6.556   5.938  1.00  0.00     0.165 A 
ATOM      6  C   UNL     1     -12.097  -6.079   5.491  1.00  0.00     0.237 A 
ENDROOT
BRANCH   1   7
ATOM      7  C   UNL     1      -8.538  -5.028   3.429  1.00  0.00     0.193 C 
ATOM      8  O   UNL     1      -7.885  -5.949   2.915  1.00  0.00    -0.289 OA
BRANCH   7   9
ATOM      9  C   UNL     1      -8.081  -3.652   3.315  1.00  0.00     0.023 A 
ATOM     10  C   UNL     1      -8.146  -2.802   4.419  1.00  0.00     0.012 A 
ATOM     11  C   UNL     1      -7.577  -3.183   2.103  1.00  0.00     0.012 A 
ATOM     12  C   UNL     1      -7.707  -1.483   4.309  1.00  0.00     0.004 A 
ATOM     13  C   UNL     1      -7.137  -1.863   1.992  1.00  0.00     0.004 A 
ATOM     14  C   UNL     1      -7.202  -1.013   3.096  1.00  0.00    -0.051 A 
ATOM     15  C   UNL     1      -6.735   0.398   2.979  1.00  0.00     0.044 C 
ENDBRANCH   7   9
ENDBRANCH   1   7
BRANCH   4  16
ATOM     16  N   UNL     1     -13.406  -4.759   3.897  1.00  0.00     0.066 N 
ATOM     17  O   UNL     1     -13.440  -3.632   3.346  1.00  0.00    -0.258 OA
ATOM     18  O   UNL     1     -14.433  -5.461   4.046  1.00  0.00    -0.258 OA
ENDBRANCH   4  16
BRANCH   5  19
ATOM     19  O   UNL     1     -10.788  -7.361   7.034  1.00  0.00    -0.504 OA
ATOM     20  H   UNL     1     -11.403  -8.106   6.934  1.00  0.00     0.293 HD
ENDBRANCH   5  19
BRANCH   6  21
ATOM     21  O   UNL     1     -13.233  -6.424   6.162  1.00  0.00    -0.500 OA
ATOM     22  H   UNL     1     -13.105  -6.285   7.113  1.00  0.00     0.294 HD
ENDBRANCH   6  21
TORSDOF 5
ENDMDL
MODEL 5
REMARK VINA RESULT:    -4.855      3.727      6.577
REMARK INTER + INTRA:          -6.783
REMARK INTER:                  -5.843
REMARK INTRA:                  -0.941
REMARK UNBOUND:                -0.793
REMARK SMILES Cc1ccc(C(=O)c2cc(O)c(O)c([N+](=O)[O-])c2)cc1
REMARK SMILES IDX 8 1 18 2 9 3 14 4 10 5 12 6 6 7 7 8 5 9 4 10 19 11 3 12
REMARK SMILES IDX 20 13 2 14 1 15 15 16 17 17 16 18 11 19 13 21
REMARK H PARENT 11 20 13 22
ROOT
ATOM      1  C   UNL     1     -10.340  -3.870   4.702  1.00  0.00     0.033 A 
ATOM      2  C   UNL     1     -10.393  -4.964   5.534  1.00  0.00     0.102 A 
ATOM      3  C   UNL     1     -11.378  -3.510   3.875  1.00  0.00     0.063 A 
ATOM      4  C   UNL     1     -11.551  -5.741   5.541  1.00  0.00     0.315 A 
ATOM      5  C   UNL     1     -12.536  -4.289   3.882  1.00  0.00     0.165 A 
ATOM      6  C   UNL     1     -12.623  -5.404   4.715  1.00  0.00     0.237 A 
ENDROOT
BRANCH   1   7
ATOM      7  C   UNL     1      -9.100  -3.037   4.694  1.00  0.00     0.193 C 
ATOM      8  O   UNL     1      -9.206  -1.856   5.057  1.00  0.00    -0.289 OA
BRANCH   7   9
ATOM      9  C   UNL     1      -7.809  -3.565   4.284  1.00  0.00     0.023 A 
ATOM     10  C   UNL     1      -6.658  -3.224   4.994  1.00  0.00     0.012 A 
ATOM     11  C   UNL     1      -7.721  -4.412   3.179  1.00  0.00     0.012 A 
ATOM     12  C   UNL     1      -5.419  -3.730   4.600  1.00  0.00     0.004 A 
ATOM     13  C   UNL     1      -6.482  -4.919   2.785  1.00  0.00     0.004 A 
ATOM     14  C   UNL     1      -5.331  -4.578   3.496  1.00  0.00    -0.051 A 
ATOM     15  C   UNL     1      -4.007  -5.118   3.074  1.00  0.00     0.044 C 
ENDBRANCH   7   9
ENDBRANCH   1   7
BRANCH   4  16
ATOM     16  N   UNL     1     -11.620  -6.875   6.397  1.00  0.00     0.066 N 
ATOM     17  O   UNL     1     -10.566  -7.506   6.654  1.00  0.00    -0.258 OA
ATOM     18  O   UNL     1     -12.731  -7.210   6.870  1.00  0.00    -0.258 OA
ENDBRANCH   4  16
BRANCH   5  19
ATOM     19  O   UNL     1     -13.575  -3.947   3.070  1.00  0.00    -0.504 OA
ATOM     20  H   UNL     1     -13.668  -4.608   2.364  1.00  0.00     0.293 HD
ENDBRANCH   5  19
BRANCH   6  21
ATOM     21  O   UNL     1     -13.761  -6.157   4.713  1.00  0.00    -0.500 OA
ATOM     22  H   UNL     1     -13.794  -6.695   3.907  1.00  0.00     0.294 HD
ENDBRANCH   6  21
TORSDOF 5
ENDMDL
MODEL 6
REMARK VINA RESULT:    -4.725      3.838      7.075
REMARK INTER + INTRA:          -6.623
REMARK INTER:                  -5.647
REMARK INTRA:                  -0.976
REMARK UNBOUND:                -0.793
REMARK SMILES Cc1ccc(C(=O)c2cc(O)c(O)c([N+](=O)[O-])c2)cc1
REMARK SMILES IDX 8 1 18 2 9 3 14 4 10 5 12 6 6 7 7 8 5 9 4 10 19 11 3 12
REMARK SMILES IDX 20 13 2 14 1 15 15 16 17 17 16 18 11 19 13 21
REMARK H PARENT 11 20 13 22
ROOT
ATOM      1  C   UNL     1     -10.330  -4.002   4.736  1.00  0.00     0.033 A 
ATOM      2  C   UNL     1     -11.402  -3.741   3.913  1.00  0.00     0.102 A 
ATOM      3  C   UNL     1     -10.319  -5.035   5.642  1.00  0.00     0.063 A 
ATOM      4  C   UNL     1     -12.526  -4.561   4.002  1.00  0.00     0.315 A 
ATOM      5  C   UNL     1     -11.444  -5.856   5.732  1.00  0.00     0.165 A 
ATOM      6  C   UNL     1     -12.548  -5.619   4.911  1.00  0.00     0.237 A 
ENDROOT
BRANCH   1   7
ATOM      7  C   UNL     1      -9.126  -3.122   4.641  1.00  0.00     0.193 C 
ATOM      8  O   UNL     1      -9.275  -1.922   4.916  1.00  0.00    -0.289 OA
BRANCH   7   9
ATOM      9  C   UNL     1      -7.821  -3.628   4.245  1.00  0.00     0.023 A 
ATOM     10  C   UNL     1      -7.706  -4.475   3.143  1.00  0.00     0.012 A 
ATOM     11  C   UNL     1      -6.684  -3.264   4.966  1.00  0.00     0.012 A 
ATOM     12  C   UNL     1      -6.455  -4.960   2.764  1.00  0.00     0.004 A 
ATOM     13  C   UNL     1      -5.432  -3.748   4.587  1.00  0.00     0.004 A 
ATOM     14  C   UNL     1      -5.317  -4.596   3.485  1.00  0.00    -0.051 A 
ATOM     15  C   UNL     1      -3.979  -5.115   3.080  1.00  0.00     0.044 C 
ENDBRANCH   7   9
ENDBRANCH   1   7
BRANCH   4  16
ATOM     16  N   UNL     1     -13.641  -4.304   3.158  1.00  0.00     0.066 N 
ATOM     17  O   UNL     1     -14.796  -4.534   3.593  1.00  0.00    -0.258 OA
ATOM     18  O   UNL     1     -13.438  -3.856   2.006  1.00  0.00    -0.258 OA
ENDBRANCH   4  16
BRANCH   5  19
ATOM     19  O   UNL     1     -11.451  -6.885   6.624  1.00  0.00    -0.504 OA
ATOM     20  H   UNL     1     -11.397  -6.533   7.528  1.00  0.00     0.293 HD
ENDBRANCH   5  19
BRANCH   6  21
ATOM     21  O   UNL     1     -13.642  -6.429   5.007  1.00  0.00    -0.500 OA
ATOM     22  H   UNL     1     -13.434  -7.303   4.642  1.00  0.00     0.294 HD
ENDBRANCH   6  21
TORSDOF 5
ENDMDL
MODEL 7
REMARK VINA RESULT:    -4.719      3.838      6.918
REMARK INTER + INTRA:          -6.616
REMARK INTER:                  -5.640
REMARK INTRA:                  -0.976
REMARK UNBOUND:                -0.793
REMARK SMILES Cc1ccc(C(=O)c2cc(O)c(O)c([N+](=O)[O-])c2)cc1
REMARK SMILES IDX 8 1 18 2 9 3 14 4 10 5 12 6 6 7 7 8 5 9 4 10 19 11 3 12
REMARK SMILES IDX 20 13 2 14 1 15 15 16 17 17 16 18 11 19 13 21
REMARK H PARENT 11 20 13 22
ROOT
ATOM      1  C   UNL     1     -10.154  -5.171   4.101  1.00  0.00     0.033 A 
ATOM      2  C   UNL     1     -10.335  -5.936   5.230  1.00  0.00     0.102 A 
ATOM      3  C   UNL     1     -11.199  -4.642   3.382  1.00  0.00     0.063 A 
ATOM      4  C   UNL     1     -11.636  -6.184   5.665  1.00  0.00     0.315 A 
ATOM      5  C   UNL     1     -12.501  -4.891   3.817  1.00  0.00     0.165 A 
ATOM      6  C   UNL     1     -12.720  -5.662   4.960  1.00  0.00     0.237 A 
ENDROOT
BRANCH   1   7
ATOM      7  C   UNL     1      -8.760  -4.905   3.634  1.00  0.00     0.193 C 
ATOM      8  O   UNL     1      -8.042  -5.888   3.396  1.00  0.00    -0.289 OA
BRANCH   7   9
ATOM      9  C   UNL     1      -8.240  -3.558   3.458  1.00  0.00     0.023 A 
ATOM     10  C   UNL     1      -8.238  -2.666   4.530  1.00  0.00     0.012 A 
ATOM     11  C   UNL     1      -7.744  -3.159   2.217  1.00  0.00     0.012 A 
ATOM     12  C   UNL     1      -7.739  -1.374   4.361  1.00  0.00     0.004 A 
ATOM     13  C   UNL     1      -7.245  -1.867   2.048  1.00  0.00     0.004 A 
ATOM     14  C   UNL     1      -7.242  -0.974   3.120  1.00  0.00    -0.051 A 
ATOM     15  C   UNL     1      -6.711   0.407   2.939  1.00  0.00     0.044 C 
ENDBRANCH   7   9
ENDBRANCH   1   7
BRANCH   4  16
ATOM     16  N   UNL     1     -11.839  -6.973   6.831  1.00  0.00     0.066 N 
ATOM     17  O   UNL     1     -10.925  -7.033   7.689  1.00  0.00    -0.258 OA
ATOM     18  O   UNL     1     -12.925  -7.583   6.968  1.00  0.00    -0.258 OA
ENDBRANCH   4  16
BRANCH   5  19
ATOM     19  O   UNL     1     -13.550  -4.374   3.118  1.00  0.00    -0.504 OA
ATOM     20  H   UNL     1     -14.029  -3.737   3.674  1.00  0.00     0.293 HD
ENDBRANCH   5  19
BRANCH   6  21
ATOM     21  O   UNL     1     -13.998  -5.898   5.376  1.00  0.00    -0.500 OA
ATOM     22  H   UNL     1     -14.032  -6.733   5.869  1.00  0.00     0.294 HD
ENDBRANCH   6  21
TORSDOF 5
ENDMDL
MODEL 8
REMARK VINA RESULT:    -4.668      9.082     12.436
REMARK INTER + INTRA:          -6.553
REMARK INTER:                  -5.562
REMARK INTRA:                  -0.991
REMARK UNBOUND:                -0.793
REMARK SMILES Cc1ccc(C(=O)c2cc(O)c(O)c([N+](=O)[O-])c2)cc1
REMARK SMILES IDX 8 1 18 2 9 3 14 4 10 5 12 6 6 7 7 8 5 9 4 10 19 11 3 12
REMARK SMILES IDX 20 13 2 14 1 15 15 16 17 17 16 18 11 19 13 21
REMARK H PARENT 11 20 13 22
ROOT
ATOM      1  C   UNL     1     -12.434  -9.319  12.059  1.00  0.00     0.033 A 
ATOM      2  C   UNL     1     -13.525 -10.156  12.098  1.00  0.00     0.102 A 
ATOM      3  C   UNL     1     -11.217  -9.651  12.605  1.00  0.00     0.063 A 
ATOM      4  C   UNL     1     -13.389 -11.398  12.720  1.00  0.00     0.315 A 
ATOM      5  C   UNL     1     -11.082 -10.892  13.228  1.00  0.00     0.165 A 
ATOM      6  C   UNL     1     -12.169 -11.766  13.284  1.00  0.00     0.237 A 
ENDROOT
BRANCH   1   7
ATOM      7  C   UNL     1     -12.579  -7.989  11.393  1.00  0.00     0.193 C 
ATOM      8  O   UNL     1     -13.132  -7.086  12.039  1.00  0.00    -0.289 OA
BRANCH   7   9
ATOM      9  C   UNL     1     -12.098  -7.736  10.044  1.00  0.00     0.023 A 
ATOM     10  C   UNL     1     -12.643  -8.435   8.967  1.00  0.00     0.012 A 
ATOM     11  C   UNL     1     -11.094  -6.793   9.827  1.00  0.00     0.012 A 
ATOM     12  C   UNL     1     -12.182  -8.192   7.673  1.00  0.00     0.004 A 
ATOM     13  C   UNL     1     -10.632  -6.550   8.532  1.00  0.00     0.004 A 
ATOM     14  C   UNL     1     -11.177  -7.249   7.455  1.00  0.00    -0.051 A 
ATOM     15  C   UNL     1     -10.684  -6.991   6.072  1.00  0.00     0.044 C 
ENDBRANCH   7   9
ENDBRANCH   1   7
BRANCH   4  16
ATOM     16  N   UNL     1     -14.508 -12.275  12.768  1.00  0.00     0.066 N 
ATOM     17  O   UNL     1     -15.659 -11.784  12.856  1.00  0.00    -0.258 OA
ATOM     18  O   UNL     1     -14.310 -13.511  12.721  1.00  0.00    -0.258 OA
ENDBRANCH   4  16
BRANCH   5  19
ATOM     19  O   UNL     1      -9.884 -11.239  13.775  1.00  0.00    -0.504 OA
ATOM     20  H   UNL     1      -9.162 -10.911  13.212  1.00  0.00     0.293 HD
ENDBRANCH   5  19
BRANCH   6  21
ATOM     21  O   UNL     1     -12.024 -12.978  13.895  1.00  0.00    -0.500 OA
ATOM     22  H   UNL     1     -11.891 -12.849  14.847  1.00  0.00     0.294 HD
ENDBRANCH   6  21
TORSDOF 5
ENDMDL
