MODEL 1
REMARK VINA RESULT:    -6.895      0.000      0.000
REMARK INTER + INTRA:          -8.662
REMARK INTER:                  -8.105
REMARK INTRA:                  -0.557
REMARK UNBOUND:                -0.557
REMARK SMILES O=C(O)c1cc(-c2ccc(F)cc2F)ccc1O
REMARK SMILES IDX 6 1 5 2 15 3 4 4 17 5 16 6 7 7 13 8 12 9 8 10 10 11 9 12
REMARK SMILES IDX 14 13 11 14 2 15 1 16 3 17 18 19
REMARK H PARENT 3 18 18 20
ROOT
ATOM      1  C   UNL     1      -4.434   0.132   5.345  1.00  0.00    -0.014 A 
ATOM      2  C   UNL     1      -3.135   0.419   5.761  1.00  0.00     0.028 A 
ATOM      3  C   UNL     1      -4.669  -0.306   4.042  1.00  0.00     0.013 A 
ATOM      4  C   UNL     1      -2.069   0.270   4.873  1.00  0.00     0.102 A 
ATOM      5  C   UNL     1      -2.304  -0.167   3.569  1.00  0.00     0.130 A 
ATOM      6  C   UNL     1      -3.604  -0.456   3.154  1.00  0.00     0.048 A 
ENDROOT
BRANCH   1   7
ATOM      7  C   UNL     1      -5.540   0.287   6.265  1.00  0.00     0.018 A 
ATOM      8  C   UNL     1      -6.717   0.911   5.847  1.00  0.00     0.133 A 
ATOM      9  C   UNL     1      -7.780   1.059   6.737  1.00  0.00     0.079 A 
ATOM     10  C   UNL     1      -5.429  -0.188   7.571  1.00  0.00     0.015 A 
ATOM     11  C   UNL     1      -7.669   0.585   8.044  1.00  0.00     0.126 A 
ATOM     12  C   UNL     1      -6.493  -0.040   8.460  1.00  0.00     0.040 A 
ATOM     13  F   UNL     1      -6.839   1.376   4.596  1.00  0.00    -0.206 F 
ATOM     14  F   UNL     1      -8.689   0.727   8.899  1.00  0.00    -0.207 F 
ENDBRANCH   1   7
BRANCH   4  15
ATOM     15  C   UNL     1      -0.719   0.576   5.326  1.00  0.00     0.339 C 
ATOM     16  O   UNL     1       0.060   1.357   4.774  1.00  0.00    -0.246 OA
BRANCH  15  17
ATOM     17  O   UNL     1      -0.386  -0.104   6.457  1.00  0.00    -0.478 OA
ATOM     18  H   UNL     1      -0.978  -0.871   6.609  1.00  0.00     0.297 HD
ENDBRANCH  15  17
ENDBRANCH   4  15
BRANCH   5  19
ATOM     19  O   UNL     1      -1.276  -0.320   2.687  1.00  0.00    -0.507 OA
ATOM     20  H   UNL     1      -1.546  -0.945   1.991  1.00  0.00     0.293 HD
ENDBRANCH   5  19
TORSDOF 4
ENDMDL
MODEL 2
REMARK VINA RESULT:    -6.885      1.231      2.711
REMARK INTER + INTRA:          -8.650
REMARK INTER:                  -8.093
REMARK INTRA:                  -0.558
REMARK UNBOUND:                -0.557
REMARK SMILES O=C(O)c1cc(-c2ccc(F)cc2F)ccc1O
REMARK SMILES IDX 6 1 5 2 15 3 4 4 17 5 16 6 7 7 13 8 12 9 8 10 10 11 9 12
REMARK SMILES IDX 14 13 11 14 2 15 1 16 3 17 18 19
REMARK H PARENT 3 18 18 20
ROOT
ATOM      1  C   UNL     1      -4.420   0.171   5.364  1.00  0.00    -0.014 A 
ATOM      2  C   UNL     1      -4.701  -0.267   4.071  1.00  0.00     0.028 A 
ATOM      3  C   UNL     1      -3.106   0.464   5.731  1.00  0.00     0.013 A 
ATOM      4  C   UNL     1      -3.669  -0.413   3.143  1.00  0.00     0.102 A 
ATOM      5  C   UNL     1      -2.355  -0.120   3.510  1.00  0.00     0.130 A 
ATOM      6  C   UNL     1      -2.074   0.318   4.805  1.00  0.00     0.048 A 
ENDROOT
BRANCH   1   7
ATOM      7  C   UNL     1      -5.490   0.321   6.327  1.00  0.00     0.018 A 
ATOM      8  C   UNL     1      -6.690   0.925   5.951  1.00  0.00     0.133 A 
ATOM      9  C   UNL     1      -7.719   1.068   6.883  1.00  0.00     0.079 A 
ATOM     10  C   UNL     1      -5.319  -0.140   7.632  1.00  0.00     0.015 A 
ATOM     11  C   UNL     1      -7.548   0.608   8.188  1.00  0.00     0.126 A 
ATOM     12  C   UNL     1      -6.347   0.003   8.562  1.00  0.00     0.040 A 
ATOM     13  F   UNL     1      -6.869   1.376   4.702  1.00  0.00    -0.206 F 
ATOM     14  F   UNL     1      -8.535   0.745   9.082  1.00  0.00    -0.207 F 
ENDBRANCH   1   7
BRANCH   4  15
ATOM     15  C   UNL     1      -3.983  -0.871   1.797  1.00  0.00     0.339 C 
ATOM     16  O   UNL     1      -3.455  -1.829   1.227  1.00  0.00    -0.246 OA
BRANCH  15  17
ATOM     17  O   UNL     1      -4.951  -0.118   1.206  1.00  0.00    -0.478 OA
ATOM     18  H   UNL     1      -5.847  -0.372   1.510  1.00  0.00     0.297 HD
ENDBRANCH  15  17
ENDBRANCH   4  15
BRANCH   5  19
ATOM     19  O   UNL     1      -1.333  -0.256   2.619  1.00  0.00    -0.507 OA
ATOM     20  H   UNL     1      -0.551  -0.602   3.083  1.00  0.00     0.293 HD
ENDBRANCH   5  19
TORSDOF 4
ENDMDL
MODEL 3
REMARK VINA RESULT:    -6.867      1.144      1.624
REMARK INTER + INTRA:          -8.629
REMARK INTER:                  -7.990
REMARK INTRA:                  -0.638
REMARK UNBOUND:                -0.557
REMARK SMILES O=C(O)c1cc(-c2ccc(F)cc2F)ccc1O
REMARK SMILES IDX 6 1 5 2 15 3 4 4 17 5 16 6 7 7 13 8 12 9 8 10 10 11 9 12
REMARK SMILES IDX 14 13 11 14 2 15 1 16 3 17 18 19
REMARK H PARENT 3 18 18 20
ROOT
ATOM      1  C   UNL     1      -4.411   0.087   5.468  1.00  0.00    -0.014 A 
ATOM      2  C   UNL     1      -3.127   0.431   5.887  1.00  0.00     0.028 A 
ATOM      3  C   UNL     1      -4.618  -0.392   4.175  1.00  0.00     0.013 A 
ATOM      4  C   UNL     1      -2.048   0.298   5.012  1.00  0.00     0.102 A 
ATOM      5  C   UNL     1      -2.255  -0.181   3.718  1.00  0.00     0.130 A 
ATOM      6  C   UNL     1      -3.541  -0.526   3.300  1.00  0.00     0.048 A 
ENDROOT
BRANCH   1   7
ATOM      7  C   UNL     1      -5.530   0.226   6.375  1.00  0.00     0.018 A 
ATOM      8  C   UNL     1      -5.428  -0.230   7.690  1.00  0.00     0.133 A 
ATOM      9  C   UNL     1      -6.510  -0.093   8.560  1.00  0.00     0.079 A 
ATOM     10  C   UNL     1      -6.712   0.819   5.932  1.00  0.00     0.015 A 
ATOM     11  C   UNL     1      -7.692   0.499   8.117  1.00  0.00     0.126 A 
ATOM     12  C   UNL     1      -7.793   0.956   6.803  1.00  0.00     0.040 A 
ATOM     13  F   UNL     1      -4.300  -0.804   8.130  1.00  0.00    -0.206 F 
ATOM     14  F   UNL     1      -8.731   0.630   8.952  1.00  0.00    -0.207 F 
ENDBRANCH   1   7
BRANCH   4  15
ATOM     15  C   UNL     1      -0.714   0.663   5.469  1.00  0.00     0.339 C 
ATOM     16  O   UNL     1       0.098   1.338   4.832  1.00  0.00    -0.246 OA
BRANCH  15  17
ATOM     17  O   UNL     1      -0.438   0.173   6.708  1.00  0.00    -0.478 OA
ATOM     18  H   UNL     1       0.105  -0.642   6.666  1.00  0.00     0.297 HD
ENDBRANCH  15  17
ENDBRANCH   4  15
BRANCH   5  19
ATOM     19  O   UNL     1      -1.215  -0.320   2.848  1.00  0.00    -0.507 OA
ATOM     20  H   UNL     1      -1.237  -1.215   2.467  1.00  0.00     0.293 HD
ENDBRANCH   5  19
TORSDOF 4
ENDMDL
MODEL 4
REMARK VINA RESULT:    -5.456      1.216      1.516
REMARK INTER + INTRA:          -6.970
REMARK INTER:                  -6.214
REMARK INTRA:                  -0.756
REMARK UNBOUND:                -0.557
REMARK SMILES O=C(O)c1cc(-c2ccc(F)cc2F)ccc1O
REMARK SMILES IDX 6 1 5 2 15 3 4 4 17 5 16 6 7 7 13 8 12 9 8 10 10 11 9 12
REMARK SMILES IDX 14 13 11 14 2 15 1 16 3 17 18 19
REMARK H PARENT 3 18 18 20
ROOT
ATOM      1  C   UNL     1      -4.996   0.525   5.840  1.00  0.00    -0.014 A 
ATOM      2  C   UNL     1      -3.652   0.540   6.211  1.00  0.00     0.028 A 
ATOM      3  C   UNL     1      -5.347   0.385   4.497  1.00  0.00     0.013 A 
ATOM      4  C   UNL     1      -2.658   0.415   5.240  1.00  0.00     0.102 A 
ATOM      5  C   UNL     1      -3.009   0.275   3.897  1.00  0.00     0.130 A 
ATOM      6  C   UNL     1      -4.355   0.260   3.526  1.00  0.00     0.048 A 
ENDROOT
BRANCH   1   7
ATOM      7  C   UNL     1      -6.027   0.657   6.847  1.00  0.00     0.018 A 
ATOM      8  C   UNL     1      -7.082  -0.255   6.892  1.00  0.00     0.133 A 
ATOM      9  C   UNL     1      -8.074  -0.125   7.864  1.00  0.00     0.079 A 
ATOM     10  C   UNL     1      -5.963   1.696   7.774  1.00  0.00     0.015 A 
ATOM     11  C   UNL     1      -8.011   0.916   8.790  1.00  0.00     0.126 A 
ATOM     12  C   UNL     1      -6.955   1.826   8.746  1.00  0.00     0.040 A 
ATOM     13  F   UNL     1      -7.160  -1.258   6.006  1.00  0.00    -0.206 F 
ATOM     14  F   UNL     1      -8.963   1.041   9.724  1.00  0.00    -0.207 F 
ENDBRANCH   1   7
BRANCH   4  15
ATOM     15  C   UNL     1      -1.260   0.432   5.648  1.00  0.00     0.339 C 
ATOM     16  O   UNL     1      -0.798  -0.143   6.637  1.00  0.00    -0.246 OA
BRANCH  15  17
ATOM     17  O   UNL     1      -0.483   1.167   4.806  1.00  0.00    -0.478 OA
ATOM     18  H   UNL     1       0.446   1.213   5.114  1.00  0.00     0.297 HD
ENDBRANCH  15  17
ENDBRANCH   4  15
BRANCH   5  19
ATOM     19  O   UNL     1      -2.054   0.150   2.933  1.00  0.00    -0.507 OA
ATOM     20  H   UNL     1      -2.485  -0.041   2.082  1.00  0.00     0.293 HD
ENDBRANCH   5  19
TORSDOF 4
ENDMDL
MODEL 5
REMARK VINA RESULT:    -5.300      4.536      6.885
REMARK INTER + INTRA:          -6.787
REMARK INTER:                  -5.725
REMARK INTRA:                  -1.062
REMARK UNBOUND:                -0.557
REMARK SMILES O=C(O)c1cc(-c2ccc(F)cc2F)ccc1O
REMARK SMILES IDX 6 1 5 2 15 3 4 4 17 5 16 6 7 7 13 8 12 9 8 10 10 11 9 12
REMARK SMILES IDX 14 13 11 14 2 15 1 16 3 17 18 19
REMARK H PARENT 3 18 18 20
ROOT
ATOM      1  C   UNL     1      -6.361   0.387   7.183  1.00  0.00    -0.014 A 
ATOM      2  C   UNL     1      -7.443  -0.484   7.074  1.00  0.00     0.028 A 
ATOM      3  C   UNL     1      -6.366   1.389   8.154  1.00  0.00     0.013 A 
ATOM      4  C   UNL     1      -8.533  -0.354   7.935  1.00  0.00     0.102 A 
ATOM      5  C   UNL     1      -8.539   0.647   8.906  1.00  0.00     0.130 A 
ATOM      6  C   UNL     1      -7.455   1.519   9.015  1.00  0.00     0.048 A 
ENDROOT
BRANCH   1   7
ATOM      7  C   UNL     1      -5.230   0.254   6.289  1.00  0.00     0.018 A 
ATOM      8  C   UNL     1      -4.083  -0.421   6.706  1.00  0.00     0.133 A 
ATOM      9  C   UNL     1      -2.996  -0.547   5.841  1.00  0.00     0.079 A 
ATOM     10  C   UNL     1      -5.291   0.802   5.008  1.00  0.00     0.015 A 
ATOM     11  C   UNL     1      -3.056   0.001   4.561  1.00  0.00     0.126 A 
ATOM     12  C   UNL     1      -4.204   0.675   4.144  1.00  0.00     0.040 A 
ATOM     13  F   UNL     1      -4.008  -0.951   7.935  1.00  0.00    -0.206 F 
ATOM     14  F   UNL     1      -2.012  -0.119   3.730  1.00  0.00    -0.207 F 
ENDBRANCH   1   7
BRANCH   4  15
ATOM     15  C   UNL     1      -9.654  -1.275   7.805  1.00  0.00     0.339 C 
ATOM     16  O   UNL     1     -10.768  -1.119   8.312  1.00  0.00    -0.246 OA
BRANCH  15  17
ATOM     17  O   UNL     1      -9.348  -2.360   7.043  1.00  0.00    -0.478 OA
ATOM     18  H   UNL     1      -8.382  -2.519   7.006  1.00  0.00     0.297 HD
ENDBRANCH  15  17
ENDBRANCH   4  15
BRANCH   5  19
ATOM     19  O   UNL     1      -9.594   0.791   9.757  1.00  0.00    -0.507 OA
ATOM     20  H   UNL     1      -9.262   1.061  10.631  1.00  0.00     0.293 HD
ENDBRANCH   5  19
TORSDOF 4
ENDMDL
MODEL 6
REMARK VINA RESULT:    -5.292      4.214      6.492
REMARK INTER + INTRA:          -6.777
REMARK INTER:                  -5.715
REMARK INTRA:                  -1.062
REMARK UNBOUND:                -0.557
REMARK SMILES O=C(O)c1cc(-c2ccc(F)cc2F)ccc1O
REMARK SMILES IDX 6 1 5 2 15 3 4 4 17 5 16 6 7 7 13 8 12 9 8 10 10 11 9 12
REMARK SMILES IDX 14 13 11 14 2 15 1 16 3 17 18 19
REMARK H PARENT 3 18 18 20
ROOT
ATOM      1  C   UNL     1      -6.348   0.427   7.167  1.00  0.00    -0.014 A 
ATOM      2  C   UNL     1      -6.320   1.442   8.123  1.00  0.00     0.028 A 
ATOM      3  C   UNL     1      -7.443  -0.435   7.098  1.00  0.00     0.013 A 
ATOM      4  C   UNL     1      -7.385   1.595   9.011  1.00  0.00     0.102 A 
ATOM      5  C   UNL     1      -8.479   0.733   8.942  1.00  0.00     0.130 A 
ATOM      6  C   UNL     1      -8.508  -0.282   7.985  1.00  0.00     0.048 A 
ENDROOT
BRANCH   1   7
ATOM      7  C   UNL     1      -5.243   0.267   6.247  1.00  0.00     0.018 A 
ATOM      8  C   UNL     1      -4.095  -0.419   6.645  1.00  0.00     0.133 A 
ATOM      9  C   UNL     1      -3.031  -0.572   5.755  1.00  0.00     0.079 A 
ATOM     10  C   UNL     1      -5.328   0.798   4.961  1.00  0.00     0.015 A 
ATOM     11  C   UNL     1      -3.116  -0.039   4.469  1.00  0.00     0.126 A 
ATOM     12  C   UNL     1      -4.265   0.645   4.072  1.00  0.00     0.040 A 
ATOM     13  F   UNL     1      -3.996  -0.934   7.879  1.00  0.00    -0.206 F 
ATOM     14  F   UNL     1      -2.095  -0.185   3.614  1.00  0.00    -0.207 F 
ENDBRANCH   1   7
BRANCH   4  15
ATOM     15  C   UNL     1      -7.336   2.662  10.001  1.00  0.00     0.339 C 
ATOM     16  O   UNL     1      -8.040   2.731  11.011  1.00  0.00    -0.246 OA
BRANCH  15  17
ATOM     17  O   UNL     1      -6.407   3.609   9.698  1.00  0.00    -0.478 OA
ATOM     18  H   UNL     1      -5.586   3.494  10.221  1.00  0.00     0.297 HD
ENDBRANCH  15  17
ENDBRANCH   4  15
BRANCH   5  19
ATOM     19  O   UNL     1      -9.531   0.867   9.799  1.00  0.00    -0.507 OA
ATOM     20  H   UNL     1     -10.226   0.233   9.549  1.00  0.00     0.293 HD
ENDBRANCH   5  19
TORSDOF 4
ENDMDL
MODEL 7
REMARK VINA RESULT:    -5.284      4.392      6.711
REMARK INTER + INTRA:          -6.767
REMARK INTER:                  -5.704
REMARK INTRA:                  -1.064
REMARK UNBOUND:                -0.557
REMARK SMILES O=C(O)c1cc(-c2ccc(F)cc2F)ccc1O
REMARK SMILES IDX 6 1 5 2 15 3 4 4 17 5 16 6 7 7 13 8 12 9 8 10 10 11 9 12
REMARK SMILES IDX 14 13 11 14 2 15 1 16 3 17 18 19
REMARK H PARENT 3 18 18 20
ROOT
ATOM      1  C   UNL     1      -6.487   0.405   7.028  1.00  0.00    -0.014 A 
ATOM      2  C   UNL     1      -7.574  -0.468   6.994  1.00  0.00     0.028 A 
ATOM      3  C   UNL     1      -6.431   1.412   7.992  1.00  0.00     0.013 A 
ATOM      4  C   UNL     1      -8.605  -0.335   7.924  1.00  0.00     0.102 A 
ATOM      5  C   UNL     1      -8.549   0.672   8.888  1.00  0.00     0.130 A 
ATOM      6  C   UNL     1      -7.461   1.545   8.922  1.00  0.00     0.048 A 
ENDROOT
BRANCH   1   7
ATOM      7  C   UNL     1      -5.418   0.268   6.063  1.00  0.00     0.018 A 
ATOM      8  C   UNL     1      -5.554   0.810   4.785  1.00  0.00     0.133 A 
ATOM      9  C   UNL     1      -4.521   0.676   3.857  1.00  0.00     0.079 A 
ATOM     10  C   UNL     1      -4.249  -0.406   6.414  1.00  0.00     0.015 A 
ATOM     11  C   UNL     1      -3.352   0.001   4.207  1.00  0.00     0.126 A 
ATOM     12  C   UNL     1      -3.216  -0.540   5.486  1.00  0.00     0.040 A 
ATOM     13  F   UNL     1      -6.673   1.459   4.431  1.00  0.00    -0.206 F 
ATOM     14  F   UNL     1      -2.360  -0.129   3.318  1.00  0.00    -0.207 F 
ENDBRANCH   1   7
BRANCH   4  15
ATOM     15  C   UNL     1      -9.732  -1.257   7.873  1.00  0.00     0.339 C 
ATOM     16  O   UNL     1     -10.795  -1.120   8.483  1.00  0.00    -0.246 OA
BRANCH  15  17
ATOM     17  O   UNL     1      -9.493  -2.321   7.058  1.00  0.00    -0.478 OA
ATOM     18  H   UNL     1      -9.662  -2.104   6.117  1.00  0.00     0.297 HD
ENDBRANCH  15  17
ENDBRANCH   4  15
BRANCH   5  19
ATOM     19  O   UNL     1      -9.546   0.819   9.806  1.00  0.00    -0.507 OA
ATOM     20  H   UNL     1     -10.037   1.636   9.613  1.00  0.00     0.293 HD
ENDBRANCH   5  19
TORSDOF 4
ENDMDL
MODEL 8
REMARK VINA RESULT:    -5.117      8.638     10.952
REMARK INTER + INTRA:          -6.571
REMARK INTER:                  -5.506
REMARK INTRA:                  -1.065
REMARK UNBOUND:                -0.557
REMARK SMILES O=C(O)c1cc(-c2ccc(F)cc2F)ccc1O
REMARK SMILES IDX 6 1 5 2 15 3 4 4 17 5 16 6 7 7 13 8 12 9 8 10 10 11 9 12
REMARK SMILES IDX 14 13 11 14 2 15 1 16 3 17 18 19
REMARK H PARENT 3 18 18 20
ROOT
ATOM      1  C   UNL     1      -8.993   6.343  11.831  1.00  0.00    -0.014 A 
ATOM      2  C   UNL     1      -8.161   7.074  12.679  1.00  0.00     0.028 A 
ATOM      3  C   UNL     1     -10.274   6.811  11.538  1.00  0.00     0.013 A 
ATOM      4  C   UNL     1      -8.610   8.272  13.235  1.00  0.00     0.102 A 
ATOM      5  C   UNL     1      -9.891   8.739  12.942  1.00  0.00     0.130 A 
ATOM      6  C   UNL     1     -10.724   8.008  12.093  1.00  0.00     0.048 A 
ENDROOT
BRANCH   1   7
ATOM      7  C   UNL     1      -8.528   5.100  11.255  1.00  0.00     0.018 A 
ATOM      8  C   UNL     1      -8.822   3.886  11.879  1.00  0.00     0.133 A 
ATOM      9  C   UNL     1      -8.372   2.690  11.320  1.00  0.00     0.079 A 
ATOM     10  C   UNL     1      -7.787   5.116  10.074  1.00  0.00     0.015 A 
ATOM     11  C   UNL     1      -7.630   2.706  10.139  1.00  0.00     0.126 A 
ATOM     12  C   UNL     1      -7.338   3.920   9.516  1.00  0.00     0.040 A 
ATOM     13  F   UNL     1      -9.530   3.853  13.016  1.00  0.00    -0.206 F 
ATOM     14  F   UNL     1      -7.198   1.558   9.603  1.00  0.00    -0.207 F 
ENDBRANCH   1   7
BRANCH   4  15
ATOM     15  C   UNL     1      -7.726   9.020  14.118  1.00  0.00     0.339 C 
ATOM     16  O   UNL     1      -8.092   9.767  15.028  1.00  0.00    -0.246 OA
BRANCH  15  17
ATOM     17  O   UNL     1      -6.412   8.808  13.836  1.00  0.00    -0.478 OA
ATOM     18  H   UNL     1      -6.218   7.858  13.694  1.00  0.00     0.297 HD
ENDBRANCH  15  17
ENDBRANCH   4  15
BRANCH   5  19
ATOM     19  O   UNL     1     -10.349   9.908  13.474  1.00  0.00    -0.507 OA
ATOM     20  H   UNL     1      -9.646  10.578  13.419  1.00  0.00     0.293 HD
ENDBRANCH   5  19
TORSDOF 4
ENDMDL
MODEL 9
REMARK VINA RESULT:    -4.142      5.857      8.267
REMARK INTER + INTRA:          -5.426
REMARK INTER:                  -4.360
REMARK INTRA:                  -1.067
REMARK UNBOUND:                -0.557
REMARK SMILES O=C(O)c1cc(-c2ccc(F)cc2F)ccc1O
REMARK SMILES IDX 6 1 5 2 15 3 4 4 17 5 16 6 7 7 13 8 12 9 8 10 10 11 9 12
REMARK SMILES IDX 14 13 11 14 2 15 1 16 3 17 18 19
REMARK H PARENT 3 18 18 20
ROOT
ATOM      1  C   UNL     1      -7.668   2.592   9.694  1.00  0.00    -0.014 A 
ATOM      2  C   UNL     1      -8.517   2.124  10.696  1.00  0.00     0.028 A 
ATOM      3  C   UNL     1      -7.273   3.930   9.683  1.00  0.00     0.013 A 
ATOM      4  C   UNL     1      -8.972   2.993  11.688  1.00  0.00     0.102 A 
ATOM      5  C   UNL     1      -8.577   4.331  11.677  1.00  0.00     0.130 A 
ATOM      6  C   UNL     1      -7.727   4.800  10.674  1.00  0.00     0.048 A 
ENDROOT
BRANCH   1   7
ATOM      7  C   UNL     1      -7.197   1.692   8.664  1.00  0.00     0.018 A 
ATOM      8  C   UNL     1      -6.108   0.854   8.910  1.00  0.00     0.133 A 
ATOM      9  C   UNL     1      -5.657  -0.013   7.914  1.00  0.00     0.079 A 
ATOM     10  C   UNL     1      -7.834   1.661   7.424  1.00  0.00     0.015 A 
ATOM     11  C   UNL     1      -6.293  -0.042   6.674  1.00  0.00     0.126 A 
ATOM     12  C   UNL     1      -7.382   0.794   6.429  1.00  0.00     0.040 A 
ATOM     13  F   UNL     1      -5.483   0.873  10.096  1.00  0.00    -0.206 F 
ATOM     14  F   UNL     1      -5.861  -0.874   5.718  1.00  0.00    -0.207 F 
ENDBRANCH   1   7
BRANCH   4  15
ATOM     15  C   UNL     1      -9.857   2.485  12.726  1.00  0.00     0.339 C 
ATOM     16  O   UNL     1     -10.389   3.165  13.607  1.00  0.00    -0.246 OA
BRANCH  15  17
ATOM     17  O   UNL     1     -10.052   1.141  12.629  1.00  0.00    -0.478 OA
ATOM     18  H   UNL     1      -9.494   0.645  13.264  1.00  0.00     0.297 HD
ENDBRANCH  15  17
ENDBRANCH   4  15
BRANCH   5  19
ATOM     19  O   UNL     1      -9.010   5.197  12.637  1.00  0.00    -0.507 OA
ATOM     20  H   UNL     1      -9.237   4.694  13.438  1.00  0.00     0.293 HD
ENDBRANCH   5  19
TORSDOF 4
ENDMDL
