MODEL 1
REMARK VINA RESULT:    -5.394      0.000      0.000
REMARK INTER + INTRA:          -7.334
REMARK INTER:                  -6.656
REMARK INTRA:                  -0.678
REMARK UNBOUND:                -0.678
REMARK SMILES Cc1ccc(C(=O)c2cc(O)c(O)c([N+](=O)[O-])c2)cc1
REMARK SMILES IDX 8 1 18 2 9 3 14 4 10 5 12 6 6 7 7 8 5 9 4 10 19 11 3 12
REMARK SMILES IDX 20 13 2 14 1 15 15 16 17 17 16 18 11 19 13 21
REMARK H PARENT 11 20 13 22
ROOT
ATOM      1  C   UNL     1      -9.862   7.682  12.728  1.00  0.00     0.033 A 
ATOM      2  C   UNL     1      -8.559   8.037  12.986  1.00  0.00     0.102 A 
ATOM      3  C   UNL     1     -10.917   8.099  13.504  1.00  0.00     0.063 A 
ATOM      4  C   UNL     1      -8.295   8.857  14.083  1.00  0.00     0.315 A 
ATOM      5  C   UNL     1     -10.654   8.919  14.602  1.00  0.00     0.165 A 
ATOM      6  C   UNL     1      -9.342   9.299  14.891  1.00  0.00     0.237 A 
ENDROOT
BRANCH   1   7
ATOM      7  C   UNL     1     -10.145   6.803  11.553  1.00  0.00     0.193 C 
ATOM      8  O   UNL     1     -11.149   7.065  10.874  1.00  0.00    -0.289 OA
BRANCH   7   9
ATOM      9  C   UNL     1      -9.293   5.679  11.197  1.00  0.00     0.023 A 
ATOM     10  C   UNL     1      -9.283   4.532  11.991  1.00  0.00     0.012 A 
ATOM     11  C   UNL     1      -8.485   5.748  10.062  1.00  0.00     0.012 A 
ATOM     12  C   UNL     1      -8.466   3.455  11.649  1.00  0.00     0.004 A 
ATOM     13  C   UNL     1      -7.668   4.671   9.720  1.00  0.00     0.004 A 
ATOM     14  C   UNL     1      -7.658   3.523  10.513  1.00  0.00    -0.051 A 
ATOM     15  C   UNL     1      -6.784   2.372  10.150  1.00  0.00     0.044 C 
ENDBRANCH   7   9
ENDBRANCH   1   7
BRANCH   4  16
ATOM     16  N   UNL     1      -6.953   9.233  14.362  1.00  0.00     0.066 N 
ATOM     17  O   UNL     1      -6.286   8.545  15.172  1.00  0.00    -0.258 OA
ATOM     18  O   UNL     1      -6.474  10.240  13.790  1.00  0.00    -0.258 OA
ENDBRANCH   4  16
BRANCH   5  19
ATOM     19  O   UNL     1     -11.687   9.343  15.383  1.00  0.00    -0.504 OA
ATOM     20  H   UNL     1     -11.584   8.986  16.281  1.00  0.00     0.293 HD
ENDBRANCH   5  19
BRANCH   6  21
ATOM     21  O   UNL     1      -9.098  10.102  15.967  1.00  0.00    -0.500 OA
ATOM     22  H   UNL     1      -9.764   9.939  16.653  1.00  0.00     0.294 HD
ENDBRANCH   6  21
TORSDOF 5
ENDMDL
MODEL 2
REMARK VINA RESULT:    -5.202      9.733     12.389
REMARK INTER + INTRA:          -7.096
REMARK INTER:                  -6.370
REMARK INTRA:                  -0.726
REMARK UNBOUND:                -0.678
REMARK SMILES Cc1ccc(C(=O)c2cc(O)c(O)c([N+](=O)[O-])c2)cc1
REMARK SMILES IDX 8 1 18 2 9 3 14 4 10 5 12 6 6 7 7 8 5 9 4 10 19 11 3 12
REMARK SMILES IDX 20 13 2 14 1 15 15 16 17 17 16 18 11 19 13 21
REMARK H PARENT 11 20 13 22
ROOT
ATOM      1  C   UNL     1      -3.986   0.916   5.533  1.00  0.00     0.033 A 
ATOM      2  C   UNL     1      -4.509   0.288   4.426  1.00  0.00     0.102 A 
ATOM      3  C   UNL     1      -2.639   1.134   5.701  1.00  0.00     0.063 A 
ATOM      4  C   UNL     1      -3.634  -0.147   3.431  1.00  0.00     0.315 A 
ATOM      5  C   UNL     1      -1.764   0.698   4.705  1.00  0.00     0.165 A 
ATOM      6  C   UNL     1      -2.262   0.058   3.570  1.00  0.00     0.237 A 
ENDROOT
BRANCH   1   7
ATOM      7  C   UNL     1      -4.923   1.382   6.599  1.00  0.00     0.193 C 
ATOM      8  O   UNL     1      -4.606   2.403   7.229  1.00  0.00    -0.289 OA
BRANCH   7   9
ATOM      9  C   UNL     1      -6.162   0.686   6.907  1.00  0.00     0.023 A 
ATOM     10  C   UNL     1      -6.213  -0.208   7.977  1.00  0.00     0.012 A 
ATOM     11  C   UNL     1      -7.300   0.913   6.133  1.00  0.00     0.012 A 
ATOM     12  C   UNL     1      -7.402  -0.875   8.271  1.00  0.00     0.004 A 
ATOM     13  C   UNL     1      -8.490   0.245   6.428  1.00  0.00     0.004 A 
ATOM     14  C   UNL     1      -8.541  -0.649   7.497  1.00  0.00    -0.051 A 
ATOM     15  C   UNL     1      -9.810  -1.363   7.812  1.00  0.00     0.044 C 
ENDBRANCH   7   9
ENDBRANCH   1   7
BRANCH   4  16
ATOM     16  N   UNL     1      -4.160  -0.798   2.281  1.00  0.00     0.066 N 
ATOM     17  O   UNL     1      -5.306  -0.484   1.878  1.00  0.00    -0.258 OA
ATOM     18  O   UNL     1      -3.463  -1.664   1.703  1.00  0.00    -0.258 OA
ENDBRANCH   4  16
BRANCH   5  19
ATOM     19  O   UNL     1      -0.426   0.906   4.854  1.00  0.00    -0.504 OA
ATOM     20  H   UNL     1      -0.149   0.622   5.742  1.00  0.00     0.293 HD
ENDBRANCH   5  19
BRANCH   6  21
ATOM     21  O   UNL     1      -1.396  -0.363   2.603  1.00  0.00    -0.500 OA
ATOM     22  H   UNL     1      -0.485  -0.176   2.877  1.00  0.00     0.294 HD
ENDBRANCH   6  21
TORSDOF 5
ENDMDL
MODEL 3
REMARK VINA RESULT:    -5.105      8.925     12.234
REMARK INTER + INTRA:          -6.977
REMARK INTER:                  -6.253
REMARK INTRA:                  -0.724
REMARK UNBOUND:                -0.678
REMARK SMILES Cc1ccc(C(=O)c2cc(O)c(O)c([N+](=O)[O-])c2)cc1
REMARK SMILES IDX 8 1 18 2 9 3 14 4 10 5 12 6 6 7 7 8 5 9 4 10 19 11 3 12
REMARK SMILES IDX 20 13 2 14 1 15 15 16 17 17 16 18 11 19 13 21
REMARK H PARENT 11 20 13 22
ROOT
ATOM      1  C   UNL     1      -4.664  -0.738   5.033  1.00  0.00     0.033 A 
ATOM      2  C   UNL     1      -3.506  -0.275   5.614  1.00  0.00     0.102 A 
ATOM      3  C   UNL     1      -4.755  -1.056   3.699  1.00  0.00     0.063 A 
ATOM      4  C   UNL     1      -2.374  -0.121   4.814  1.00  0.00     0.315 A 
ATOM      5  C   UNL     1      -3.623  -0.901   2.898  1.00  0.00     0.165 A 
ATOM      6  C   UNL     1      -2.432  -0.434   3.456  1.00  0.00     0.237 A 
ENDROOT
BRANCH   1   7
ATOM      7  C   UNL     1      -5.877  -0.903   5.890  1.00  0.00     0.193 C 
ATOM      8  O   UNL     1      -6.601  -1.886   5.669  1.00  0.00    -0.289 OA
BRANCH   7   9
ATOM      9  C   UNL     1      -6.218   0.036   6.947  1.00  0.00     0.023 A 
ATOM     10  C   UNL     1      -7.139   1.055   6.704  1.00  0.00     0.012 A 
ATOM     11  C   UNL     1      -5.625  -0.083   8.204  1.00  0.00     0.012 A 
ATOM     12  C   UNL     1      -7.466   1.955   7.718  1.00  0.00     0.004 A 
ATOM     13  C   UNL     1      -5.952   0.817   9.219  1.00  0.00     0.004 A 
ATOM     14  C   UNL     1      -6.873   1.836   8.976  1.00  0.00    -0.051 A 
ATOM     15  C   UNL     1      -7.222   2.799  10.059  1.00  0.00     0.044 C 
ENDBRANCH   7   9
ENDBRANCH   1   7
BRANCH   4  16
ATOM     16  N   UNL     1      -1.170   0.356   5.400  1.00  0.00     0.066 N 
ATOM     17  O   UNL     1      -0.776  -0.154   6.476  1.00  0.00    -0.258 OA
ATOM     18  O   UNL     1      -0.538   1.272   4.824  1.00  0.00    -0.258 OA
ENDBRANCH   4  16
BRANCH   5  19
ATOM     19  O   UNL     1      -3.694  -1.211   1.573  1.00  0.00    -0.504 OA
ATOM     20  H   UNL     1      -4.625  -1.252   1.298  1.00  0.00     0.293 HD
ENDBRANCH   5  19
BRANCH   6  21
ATOM     21  O   UNL     1      -1.331  -0.288   2.663  1.00  0.00    -0.500 OA
ATOM     22  H   UNL     1      -1.204  -1.089   2.131  1.00  0.00     0.294 HD
ENDBRANCH   6  21
TORSDOF 5
ENDMDL
MODEL 4
REMARK VINA RESULT:    -4.707      1.182      2.917
REMARK INTER + INTRA:          -6.486
REMARK INTER:                  -5.542
REMARK INTRA:                  -0.943
REMARK UNBOUND:                -0.678
REMARK SMILES Cc1ccc(C(=O)c2cc(O)c(O)c([N+](=O)[O-])c2)cc1
REMARK SMILES IDX 8 1 18 2 9 3 14 4 10 5 12 6 6 7 7 8 5 9 4 10 19 11 3 12
REMARK SMILES IDX 20 13 2 14 1 15 15 16 17 17 16 18 11 19 13 21
REMARK H PARENT 11 20 13 22
ROOT
ATOM      1  C   UNL     1      -9.828   7.560  12.739  1.00  0.00     0.033 A 
ATOM      2  C   UNL     1     -10.847   7.926  13.587  1.00  0.00     0.102 A 
ATOM      3  C   UNL     1      -8.532   7.990  12.900  1.00  0.00     0.063 A 
ATOM      4  C   UNL     1     -10.553   8.770  14.658  1.00  0.00     0.315 A 
ATOM      5  C   UNL     1      -8.238   8.835  13.971  1.00  0.00     0.165 A 
ATOM      6  C   UNL     1      -9.249   9.224  14.851  1.00  0.00     0.237 A 
ENDROOT
BRANCH   1   7
ATOM      7  C   UNL     1     -10.142   6.657  11.591  1.00  0.00     0.193 C 
ATOM      8  O   UNL     1     -11.186   6.882  10.959  1.00  0.00    -0.289 OA
BRANCH   7   9
ATOM      9  C   UNL     1      -9.278   5.552  11.209  1.00  0.00     0.023 A 
ATOM     10  C   UNL     1      -8.461   5.662  10.083  1.00  0.00     0.012 A 
ATOM     11  C   UNL     1      -9.264   4.382  11.968  1.00  0.00     0.012 A 
ATOM     12  C   UNL     1      -7.632   4.603   9.717  1.00  0.00     0.004 A 
ATOM     13  C   UNL     1      -8.434   3.322  11.602  1.00  0.00     0.004 A 
ATOM     14  C   UNL     1      -7.618   3.432  10.476  1.00  0.00    -0.051 A 
ATOM     15  C   UNL     1      -6.732   2.299  10.083  1.00  0.00     0.044 C 
ENDBRANCH   7   9
ENDBRANCH   1   7
BRANCH   4  16
ATOM     16  N   UNL     1     -11.597   9.156  15.543  1.00  0.00     0.066 N 
ATOM     17  O   UNL     1     -11.667  10.354  15.911  1.00  0.00    -0.258 OA
ATOM     18  O   UNL     1     -12.415   8.290  15.930  1.00  0.00    -0.258 OA
ENDBRANCH   4  16
BRANCH   5  19
ATOM     19  O   UNL     1      -6.959   9.271  14.148  1.00  0.00    -0.504 OA
ATOM     20  H   UNL     1      -6.864   9.648  15.038  1.00  0.00     0.293 HD
ENDBRANCH   5  19
BRANCH   6  21
ATOM     21  O   UNL     1      -8.949  10.050  15.895  1.00  0.00    -0.500 OA
ATOM     22  H   UNL     1      -9.555   9.877  16.632  1.00  0.00     0.294 HD
ENDBRANCH   6  21
TORSDOF 5
ENDMDL
MODEL 5
REMARK VINA RESULT:    -4.585      8.733     10.858
REMARK INTER + INTRA:          -6.335
REMARK INTER:                  -5.360
REMARK INTRA:                  -0.975
REMARK UNBOUND:                -0.678
REMARK SMILES Cc1ccc(C(=O)c2cc(O)c(O)c([N+](=O)[O-])c2)cc1
REMARK SMILES IDX 8 1 18 2 9 3 14 4 10 5 12 6 6 7 7 8 5 9 4 10 19 11 3 12
REMARK SMILES IDX 20 13 2 14 1 15 15 16 17 17 16 18 11 19 13 21
REMARK H PARENT 11 20 13 22
ROOT
ATOM      1  C   UNL     1      -7.265   0.714   6.588  1.00  0.00     0.033 A 
ATOM      2  C   UNL     1      -5.995   0.228   6.383  1.00  0.00     0.102 A 
ATOM      3  C   UNL     1      -7.977   1.376   5.617  1.00  0.00     0.063 A 
ATOM      4  C   UNL     1      -5.403   0.415   5.133  1.00  0.00     0.315 A 
ATOM      5  C   UNL     1      -7.386   1.564   4.367  1.00  0.00     0.165 A 
ATOM      6  C   UNL     1      -6.098   1.083   4.125  1.00  0.00     0.237 A 
ENDROOT
BRANCH   1   7
ATOM      7  C   UNL     1      -7.899   0.514   7.926  1.00  0.00     0.193 C 
ATOM      8  O   UNL     1      -7.529   1.257   8.848  1.00  0.00    -0.289 OA
BRANCH   7   9
ATOM      9  C   UNL     1      -8.910  -0.503   8.166  1.00  0.00     0.023 A 
ATOM     10  C   UNL     1     -10.117  -0.157   8.773  1.00  0.00     0.012 A 
ATOM     11  C   UNL     1      -8.674  -1.825   7.788  1.00  0.00     0.012 A 
ATOM     12  C   UNL     1     -11.087  -1.132   9.003  1.00  0.00     0.004 A 
ATOM     13  C   UNL     1      -9.644  -2.801   8.018  1.00  0.00     0.004 A 
ATOM     14  C   UNL     1     -10.851  -2.455   8.625  1.00  0.00    -0.051 A 
ATOM     15  C   UNL     1     -11.888  -3.497   8.872  1.00  0.00     0.044 C 
ENDBRANCH   7   9
ENDBRANCH   1   7
BRANCH   4  16
ATOM     16  N   UNL     1      -4.091  -0.082   4.905  1.00  0.00     0.066 N 
ATOM     17  O   UNL     1      -3.290   0.609   4.230  1.00  0.00    -0.258 OA
ATOM     18  O   UNL     1      -3.772  -1.194   5.386  1.00  0.00    -0.258 OA
ENDBRANCH   4  16
BRANCH   5  19
ATOM     19  O   UNL     1      -8.077   2.218   3.392  1.00  0.00    -0.504 OA
ATOM     20  H   UNL     1      -7.792   3.147   3.358  1.00  0.00     0.293 HD
ENDBRANCH   5  19
BRANCH   6  21
ATOM     21  O   UNL     1      -5.531   1.272   2.899  1.00  0.00    -0.500 OA
ATOM     22  H   UNL     1      -4.706   1.774   2.995  1.00  0.00     0.294 HD
ENDBRANCH   6  21
TORSDOF 5
ENDMDL
MODEL 6
REMARK VINA RESULT:    -4.580      7.139     10.089
REMARK INTER + INTRA:          -6.329
REMARK INTER:                  -5.399
REMARK INTRA:                  -0.930
REMARK UNBOUND:                -0.678
REMARK SMILES Cc1ccc(C(=O)c2cc(O)c(O)c([N+](=O)[O-])c2)cc1
REMARK SMILES IDX 8 1 18 2 9 3 14 4 10 5 12 6 6 7 7 8 5 9 4 10 19 11 3 12
REMARK SMILES IDX 20 13 2 14 1 15 15 16 17 17 16 18 11 19 13 21
REMARK H PARENT 11 20 13 22
ROOT
ATOM      1  C   UNL     1      -6.198   0.284   7.995  1.00  0.00     0.033 A 
ATOM      2  C   UNL     1      -7.361  -0.423   7.796  1.00  0.00     0.102 A 
ATOM      3  C   UNL     1      -6.119   1.370   8.835  1.00  0.00     0.063 A 
ATOM      4  C   UNL     1      -8.510  -0.022   8.478  1.00  0.00     0.315 A 
ATOM      5  C   UNL     1      -7.268   1.772   9.516  1.00  0.00     0.165 A 
ATOM      6  C   UNL     1      -8.464   1.075   9.338  1.00  0.00     0.237 A 
ENDROOT
BRANCH   1   7
ATOM      7  C   UNL     1      -4.967  -0.145   7.265  1.00  0.00     0.193 C 
ATOM      8  O   UNL     1      -3.964  -0.406   7.946  1.00  0.00    -0.289 OA
BRANCH   7   9
ATOM      9  C   UNL     1      -4.921  -0.262   5.816  1.00  0.00     0.023 A 
ATOM     10  C   UNL     1      -4.326  -1.376   5.225  1.00  0.00     0.012 A 
ATOM     11  C   UNL     1      -5.471   0.741   5.018  1.00  0.00     0.012 A 
ATOM     12  C   UNL     1      -4.282  -1.488   3.835  1.00  0.00     0.004 A 
ATOM     13  C   UNL     1      -5.427   0.630   3.628  1.00  0.00     0.004 A 
ATOM     14  C   UNL     1      -4.832  -0.485   3.036  1.00  0.00    -0.051 A 
ATOM     15  C   UNL     1      -4.783  -0.604   1.551  1.00  0.00     0.044 C 
ENDBRANCH   7   9
ENDBRANCH   1   7
BRANCH   4  16
ATOM     16  N   UNL     1      -9.720  -0.743   8.283  1.00  0.00     0.066 N 
ATOM     17  O   UNL     1     -10.541  -0.816   9.229  1.00  0.00    -0.258 OA
ATOM     18  O   UNL     1      -9.931  -1.284   7.173  1.00  0.00    -0.258 OA
ENDBRANCH   4  16
BRANCH   5  19
ATOM     19  O   UNL     1      -7.208   2.845  10.353  1.00  0.00    -0.504 OA
ATOM     20  H   UNL     1      -6.978   3.641   9.846  1.00  0.00     0.293 HD
ENDBRANCH   5  19
BRANCH   6  21
ATOM     21  O   UNL     1      -9.581   1.478  10.010  1.00  0.00    -0.500 OA
ATOM     22  H   UNL     1      -9.324   1.992  10.791  1.00  0.00     0.294 HD
ENDBRANCH   6  21
TORSDOF 5
ENDMDL
MODEL 7
REMARK VINA RESULT:    -4.571      6.902     10.135
REMARK INTER + INTRA:          -6.318
REMARK INTER:                  -5.350
REMARK INTRA:                  -0.968
REMARK UNBOUND:                -0.678
REMARK SMILES Cc1ccc(C(=O)c2cc(O)c(O)c([N+](=O)[O-])c2)cc1
REMARK SMILES IDX 8 1 18 2 9 3 14 4 10 5 12 6 6 7 7 8 5 9 4 10 19 11 3 12
REMARK SMILES IDX 20 13 2 14 1 15 15 16 17 17 16 18 11 19 13 21
REMARK H PARENT 11 20 13 22
ROOT
ATOM      1  C   UNL     1      -6.087   0.160   8.077  1.00  0.00     0.033 A 
ATOM      2  C   UNL     1      -5.666   0.410   6.791  1.00  0.00     0.102 A 
ATOM      3  C   UNL     1      -5.315  -0.506   8.999  1.00  0.00     0.063 A 
ATOM      4  C   UNL     1      -4.400  -0.031   6.407  1.00  0.00     0.315 A 
ATOM      5  C   UNL     1      -4.049  -0.948   8.614  1.00  0.00     0.165 A 
ATOM      6  C   UNL     1      -3.591  -0.709   7.317  1.00  0.00     0.237 A 
ENDROOT
BRANCH   1   7
ATOM      7  C   UNL     1      -7.444   0.631   8.489  1.00  0.00     0.193 C 
ATOM      8  O   UNL     1      -8.417  -0.048   8.127  1.00  0.00    -0.289 OA
BRANCH   7   9
ATOM      9  C   UNL     1      -7.644   1.834   9.281  1.00  0.00     0.023 A 
ATOM     10  C   UNL     1      -8.436   1.789  10.429  1.00  0.00     0.012 A 
ATOM     11  C   UNL     1      -7.044   3.032   8.895  1.00  0.00     0.012 A 
ATOM     12  C   UNL     1      -8.627   2.943  11.189  1.00  0.00     0.004 A 
ATOM     13  C   UNL     1      -7.235   4.186   9.655  1.00  0.00     0.004 A 
ATOM     14  C   UNL     1      -8.027   4.142  10.802  1.00  0.00    -0.051 A 
ATOM     15  C   UNL     1      -8.233   5.375  11.615  1.00  0.00     0.044 C 
ENDBRANCH   7   9
ENDBRANCH   1   7
BRANCH   4  16
ATOM     16  N   UNL     1      -3.951   0.221   5.081  1.00  0.00     0.066 N 
ATOM     17  O   UNL     1      -3.219  -0.628   4.518  1.00  0.00    -0.258 OA
ATOM     18  O   UNL     1      -4.299   1.283   4.515  1.00  0.00    -0.258 OA
ENDBRANCH   4  16
BRANCH   5  19
ATOM     19  O   UNL     1      -3.269  -1.609   9.515  1.00  0.00    -0.504 OA
ATOM     20  H   UNL     1      -3.807  -1.871  10.280  1.00  0.00     0.293 HD
ENDBRANCH   5  19
BRANCH   6  21
ATOM     21  O   UNL     1      -2.350  -1.145   6.953  1.00  0.00    -0.500 OA
ATOM     22  H   UNL     1      -2.308  -2.111   7.031  1.00  0.00     0.294 HD
ENDBRANCH   6  21
TORSDOF 5
ENDMDL
MODEL 8
REMARK VINA RESULT:    -4.466      7.202      9.833
REMARK INTER + INTRA:          -6.188
REMARK INTER:                  -5.207
REMARK INTRA:                  -0.981
REMARK UNBOUND:                -0.678
REMARK SMILES Cc1ccc(C(=O)c2cc(O)c(O)c([N+](=O)[O-])c2)cc1
REMARK SMILES IDX 8 1 18 2 9 3 14 4 10 5 12 6 6 7 7 8 5 9 4 10 19 11 3 12
REMARK SMILES IDX 20 13 2 14 1 15 15 16 17 17 16 18 11 19 13 21
REMARK H PARENT 11 20 13 22
ROOT
ATOM      1  C   UNL     1      -7.174   0.742   7.053  1.00  0.00     0.033 A 
ATOM      2  C   UNL     1      -8.161  -0.198   7.239  1.00  0.00     0.102 A 
ATOM      3  C   UNL     1      -6.943   1.768   7.938  1.00  0.00     0.063 A 
ATOM      4  C   UNL     1      -8.963  -0.106   8.377  1.00  0.00     0.315 A 
ATOM      5  C   UNL     1      -7.745   1.860   9.076  1.00  0.00     0.165 A 
ATOM      6  C   UNL     1      -8.755   0.922   9.295  1.00  0.00     0.237 A 
ENDROOT
BRANCH   1   7
ATOM      7  C   UNL     1      -6.315   0.644   5.834  1.00  0.00     0.193 C 
ATOM      8  O   UNL     1      -6.889   0.614   4.735  1.00  0.00    -0.289 OA
BRANCH   7   9
ATOM      9  C   UNL     1      -4.864   0.584   5.905  1.00  0.00     0.023 A 
ATOM     10  C   UNL     1      -4.092   1.507   5.199  1.00  0.00     0.012 A 
ATOM     11  C   UNL     1      -4.243  -0.395   6.680  1.00  0.00     0.012 A 
ATOM     12  C   UNL     1      -2.700   1.450   5.268  1.00  0.00     0.004 A 
ATOM     13  C   UNL     1      -2.851  -0.453   6.749  1.00  0.00     0.004 A 
ATOM     14  C   UNL     1      -2.079   0.470   6.043  1.00  0.00    -0.051 A 
ATOM     15  C   UNL     1      -0.591   0.408   6.115  1.00  0.00     0.044 C 
ENDBRANCH   7   9
ENDBRANCH   1   7
BRANCH   4  16
ATOM     16  N   UNL     1      -9.987  -1.070   8.583  1.00  0.00     0.066 N 
ATOM     17  O   UNL     1     -11.003  -0.743   9.243  1.00  0.00    -0.258 OA
ATOM     18  O   UNL     1      -9.846  -2.217   8.099  1.00  0.00    -0.258 OA
ENDBRANCH   4  16
BRANCH   5  19
ATOM     19  O   UNL     1      -7.530   2.870   9.965  1.00  0.00    -0.504 OA
ATOM     20  H   UNL     1      -8.314   2.979  10.529  1.00  0.00     0.293 HD
ENDBRANCH   5  19
BRANCH   6  21
ATOM     21  O   UNL     1      -9.533   1.023  10.412  1.00  0.00    -0.500 OA
ATOM     22  H   UNL     1      -9.903   1.917  10.472  1.00  0.00     0.294 HD
ENDBRANCH   6  21
TORSDOF 5
ENDMDL
MODEL 9
REMARK VINA RESULT:    -4.461      6.628      9.462
REMARK INTER + INTRA:          -6.181
REMARK INTER:                  -5.238
REMARK INTRA:                  -0.943
REMARK UNBOUND:                -0.678
REMARK SMILES Cc1ccc(C(=O)c2cc(O)c(O)c([N+](=O)[O-])c2)cc1
REMARK SMILES IDX 8 1 18 2 9 3 14 4 10 5 12 6 6 7 7 8 5 9 4 10 19 11 3 12
REMARK SMILES IDX 20 13 2 14 1 15 15 16 17 17 16 18 11 19 13 21
REMARK H PARENT 11 20 13 22
ROOT
ATOM      1  C   UNL     1      -6.242   0.294   7.959  1.00  0.00     0.033 A 
ATOM      2  C   UNL     1      -6.220   1.414   8.758  1.00  0.00     0.102 A 
ATOM      3  C   UNL     1      -7.363  -0.484   7.795  1.00  0.00     0.063 A 
ATOM      4  C   UNL     1      -7.387   1.777   9.429  1.00  0.00     0.315 A 
ATOM      5  C   UNL     1      -8.531  -0.121   8.467  1.00  0.00     0.165 A 
ATOM      6  C   UNL     1      -8.543   1.010   9.284  1.00  0.00     0.237 A 
ENDROOT
BRANCH   1   7
ATOM      7  C   UNL     1      -4.992  -0.095   7.240  1.00  0.00     0.193 C 
ATOM      8  O   UNL     1      -3.982  -0.310   7.928  1.00  0.00    -0.289 OA
BRANCH   7   9
ATOM      9  C   UNL     1      -4.933  -0.225   5.793  1.00  0.00     0.023 A 
ATOM     10  C   UNL     1      -4.319  -1.338   5.217  1.00  0.00     0.012 A 
ATOM     11  C   UNL     1      -5.490   0.762   4.981  1.00  0.00     0.012 A 
ATOM     12  C   UNL     1      -4.263  -1.462   3.829  1.00  0.00     0.004 A 
ATOM     13  C   UNL     1      -5.435   0.638   3.592  1.00  0.00     0.004 A 
ATOM     14  C   UNL     1      -4.821  -0.475   3.016  1.00  0.00    -0.051 A 
ATOM     15  C   UNL     1      -4.760  -0.608   1.532  1.00  0.00     0.044 C 
ENDBRANCH   7   9
ENDBRANCH   1   7
BRANCH   4  16
ATOM     16  N   UNL     1      -7.380   2.932  10.258  1.00  0.00     0.066 N 
ATOM     17  O   UNL     1      -7.927   2.872  11.386  1.00  0.00    -0.258 OA
ATOM     18  O   UNL     1      -6.828   3.975   9.838  1.00  0.00    -0.258 OA
ENDBRANCH   4  16
BRANCH   5  19
ATOM     19  O   UNL     1      -9.653  -0.880   8.315  1.00  0.00    -0.504 OA
ATOM     20  H   UNL     1      -9.587  -1.673   8.872  1.00  0.00     0.293 HD
ENDBRANCH   5  19
BRANCH   6  21
ATOM     21  O   UNL     1      -9.691   1.355   9.936  1.00  0.00    -0.500 OA
ATOM     22  H   UNL     1     -10.365   1.621   9.291  1.00  0.00     0.294 HD
ENDBRANCH   6  21
TORSDOF 5
ENDMDL
