MODEL 1
REMARK VINA RESULT:    -6.585      0.000      0.000
REMARK INTER + INTRA:          -8.378
REMARK INTER:                  -7.740
REMARK INTRA:                  -0.638
REMARK UNBOUND:                -0.638
REMARK SMILES O=C(O)c1cc(-c2ccc(F)cc2F)ccc1O
REMARK SMILES IDX 6 1 5 2 15 3 4 4 17 5 16 6 7 7 13 8 12 9 8 10 10 11 9 12
REMARK SMILES IDX 14 13 11 14 2 15 1 16 3 17 18 19
REMARK H PARENT 3 18 18 20
ROOT
ATOM      1  C   UNL     1       2.281   3.567  -6.782  1.00  0.00    -0.014 A 
ATOM      2  C   UNL     1       3.562   3.280  -6.313  1.00  0.00     0.028 A 
ATOM      3  C   UNL     1       1.182   3.442  -5.931  1.00  0.00     0.013 A 
ATOM      4  C   UNL     1       3.746   2.867  -4.993  1.00  0.00     0.102 A 
ATOM      5  C   UNL     1       2.648   2.742  -4.142  1.00  0.00     0.130 A 
ATOM      6  C   UNL     1       1.365   3.030  -4.612  1.00  0.00     0.048 A 
ENDROOT
BRANCH   1   7
ATOM      7  C   UNL     1       2.089   3.994  -8.151  1.00  0.00     0.018 A 
ATOM      8  C   UNL     1       2.915   4.975  -8.701  1.00  0.00     0.133 A 
ATOM      9  C   UNL     1       2.726   5.383 -10.022  1.00  0.00     0.079 A 
ATOM     10  C   UNL     1       1.077   3.422  -8.921  1.00  0.00     0.015 A 
ATOM     11  C   UNL     1       1.714   4.812 -10.792  1.00  0.00     0.126 A 
ATOM     12  C   UNL     1       0.889   3.830 -10.241  1.00  0.00     0.040 A 
ATOM     13  F   UNL     1       3.891   5.537  -7.974  1.00  0.00    -0.206 F 
ATOM     14  F   UNL     1       1.532   5.203 -12.059  1.00  0.00    -0.207 F 
ENDBRANCH   1   7
BRANCH   4  15
ATOM     15  C   UNL     1       5.092   2.573  -4.522  1.00  0.00     0.339 C 
ATOM     16  O   UNL     1       5.416   1.585  -3.859  1.00  0.00    -0.246 OA
BRANCH  15  17
ATOM     17  O   UNL     1       5.992   3.522  -4.898  1.00  0.00    -0.478 OA
ATOM     18  H   UNL     1       6.873   3.369  -4.497  1.00  0.00     0.297 HD
ENDBRANCH  15  17
ENDBRANCH   4  15
BRANCH   5  19
ATOM     19  O   UNL     1       2.806   2.341  -2.849  1.00  0.00    -0.507 OA
ATOM     20  H   UNL     1       3.202   1.453  -2.839  1.00  0.00     0.293 HD
ENDBRANCH   5  19
TORSDOF 4
ENDMDL
MODEL 2
REMARK VINA RESULT:    -6.575      1.126      1.608
REMARK INTER + INTRA:          -8.367
REMARK INTER:                  -7.725
REMARK INTRA:                  -0.641
REMARK UNBOUND:                -0.638
REMARK SMILES O=C(O)c1cc(-c2ccc(F)cc2F)ccc1O
REMARK SMILES IDX 6 1 5 2 15 3 4 4 17 5 16 6 7 7 13 8 12 9 8 10 10 11 9 12
REMARK SMILES IDX 14 13 11 14 2 15 1 16 3 17 18 19
REMARK H PARENT 3 18 18 20
ROOT
ATOM      1  C   UNL     1       2.252   3.537  -6.780  1.00  0.00    -0.014 A 
ATOM      2  C   UNL     1       3.537   3.260  -6.315  1.00  0.00     0.028 A 
ATOM      3  C   UNL     1       1.159   3.413  -5.922  1.00  0.00     0.013 A 
ATOM      4  C   UNL     1       3.730   2.859  -4.993  1.00  0.00     0.102 A 
ATOM      5  C   UNL     1       2.637   2.735  -4.135  1.00  0.00     0.130 A 
ATOM      6  C   UNL     1       1.351   3.012  -4.601  1.00  0.00     0.048 A 
ENDROOT
BRANCH   1   7
ATOM      7  C   UNL     1       2.052   3.952  -8.152  1.00  0.00     0.018 A 
ATOM      8  C   UNL     1       1.061   3.349  -8.927  1.00  0.00     0.133 A 
ATOM      9  C   UNL     1       0.871   3.752 -10.250  1.00  0.00     0.079 A 
ATOM     10  C   UNL     1       2.850   4.956  -8.697  1.00  0.00     0.015 A 
ATOM     11  C   UNL     1       1.670   4.756 -10.795  1.00  0.00     0.126 A 
ATOM     12  C   UNL     1       2.660   5.358 -10.018  1.00  0.00     0.040 A 
ATOM     13  F   UNL     1       0.286   2.380  -8.419  1.00  0.00    -0.206 F 
ATOM     14  F   UNL     1       1.488   5.143 -12.064  1.00  0.00    -0.207 F 
ENDBRANCH   1   7
BRANCH   4  15
ATOM     15  C   UNL     1       5.081   2.575  -4.527  1.00  0.00     0.339 C 
ATOM     16  O   UNL     1       5.415   1.589  -3.866  1.00  0.00    -0.246 OA
BRANCH  15  17
ATOM     17  O   UNL     1       5.971   3.533  -4.903  1.00  0.00    -0.478 OA
ATOM     18  H   UNL     1       6.695   3.634  -4.251  1.00  0.00     0.297 HD
ENDBRANCH  15  17
ENDBRANCH   4  15
BRANCH   5  19
ATOM     19  O   UNL     1       2.804   2.345  -2.840  1.00  0.00    -0.507 OA
ATOM     20  H   UNL     1       2.109   1.704  -2.610  1.00  0.00     0.293 HD
ENDBRANCH   5  19
TORSDOF 4
ENDMDL
MODEL 3
REMARK VINA RESULT:    -6.569      1.268      2.723
REMARK INTER + INTRA:          -8.360
REMARK INTER:                  -7.756
REMARK INTRA:                  -0.603
REMARK UNBOUND:                -0.638
REMARK SMILES O=C(O)c1cc(-c2ccc(F)cc2F)ccc1O
REMARK SMILES IDX 6 1 5 2 15 3 4 4 17 5 16 6 7 7 13 8 12 9 8 10 10 11 9 12
REMARK SMILES IDX 14 13 11 14 2 15 1 16 3 17 18 19
REMARK H PARENT 3 18 18 20
ROOT
ATOM      1  C   UNL     1       2.315   3.460  -6.742  1.00  0.00    -0.014 A 
ATOM      2  C   UNL     1       1.177   3.329  -5.947  1.00  0.00     0.028 A 
ATOM      3  C   UNL     1       3.568   3.130  -6.226  1.00  0.00     0.013 A 
ATOM      4  C   UNL     1       1.292   2.867  -4.636  1.00  0.00     0.102 A 
ATOM      5  C   UNL     1       2.545   2.537  -4.120  1.00  0.00     0.130 A 
ATOM      6  C   UNL     1       3.684   2.668  -4.915  1.00  0.00     0.048 A 
ENDROOT
BRANCH   1   7
ATOM      7  C   UNL     1       2.198   3.940  -8.102  1.00  0.00     0.018 A 
ATOM      8  C   UNL     1       3.037   4.956  -8.562  1.00  0.00     0.133 A 
ATOM      9  C   UNL     1       2.920   5.416  -9.873  1.00  0.00     0.079 A 
ATOM     10  C   UNL     1       1.244   3.384  -8.954  1.00  0.00     0.015 A 
ATOM     11  C   UNL     1       1.965   4.861 -10.725  1.00  0.00     0.126 A 
ATOM     12  C   UNL     1       1.128   3.844 -10.265  1.00  0.00     0.040 A 
ATOM     13  F   UNL     1       3.957   5.503  -7.754  1.00  0.00    -0.206 F 
ATOM     14  F   UNL     1       1.853   5.302 -11.985  1.00  0.00    -0.207 F 
ENDBRANCH   1   7
BRANCH   4  15
ATOM     15  C   UNL     1       0.091   2.736  -3.822  1.00  0.00     0.339 C 
ATOM     16  O   UNL     1      -0.079   3.249  -2.713  1.00  0.00    -0.246 OA
BRANCH  15  17
ATOM     17  O   UNL     1      -0.861   1.970  -4.421  1.00  0.00    -0.478 OA
ATOM     18  H   UNL     1      -0.584   1.032  -4.490  1.00  0.00     0.297 HD
ENDBRANCH  15  17
ENDBRANCH   4  15
BRANCH   5  19
ATOM     19  O   UNL     1       2.678   2.083  -2.841  1.00  0.00    -0.507 OA
ATOM     20  H   UNL     1       1.795   1.895  -2.478  1.00  0.00     0.293 HD
ENDBRANCH   5  19
TORSDOF 4
ENDMDL
MODEL 4
REMARK VINA RESULT:    -6.567      1.664      3.157
REMARK INTER + INTRA:          -8.357
REMARK INTER:                  -7.765
REMARK INTRA:                  -0.591
REMARK UNBOUND:                -0.638
REMARK SMILES O=C(O)c1cc(-c2ccc(F)cc2F)ccc1O
REMARK SMILES IDX 6 1 5 2 15 3 4 4 17 5 16 6 7 7 13 8 12 9 8 10 10 11 9 12
REMARK SMILES IDX 14 13 11 14 2 15 1 16 3 17 18 19
REMARK H PARENT 3 18 18 20
ROOT
ATOM      1  C   UNL     1       2.273   3.426  -6.778  1.00  0.00    -0.014 A 
ATOM      2  C   UNL     1       1.147   3.300  -5.966  1.00  0.00     0.028 A 
ATOM      3  C   UNL     1       3.534   3.103  -6.275  1.00  0.00     0.013 A 
ATOM      4  C   UNL     1       1.280   2.853  -4.651  1.00  0.00     0.102 A 
ATOM      5  C   UNL     1       2.541   2.531  -4.149  1.00  0.00     0.130 A 
ATOM      6  C   UNL     1       3.668   2.656  -4.961  1.00  0.00     0.048 A 
ENDROOT
BRANCH   1   7
ATOM      7  C   UNL     1       2.136   3.891  -8.141  1.00  0.00     0.018 A 
ATOM      8  C   UNL     1       1.145   3.358  -8.966  1.00  0.00     0.133 A 
ATOM      9  C   UNL     1       1.016   3.810 -10.280  1.00  0.00     0.079 A 
ATOM     10  C   UNL     1       2.996   4.874  -8.629  1.00  0.00     0.015 A 
ATOM     11  C   UNL     1       1.877   4.792 -10.768  1.00  0.00     0.126 A 
ATOM     12  C   UNL     1       2.867   5.325  -9.942  1.00  0.00     0.040 A 
ATOM     13  F   UNL     1       0.312   2.411  -8.514  1.00  0.00    -0.206 F 
ATOM     14  F   UNL     1       1.754   5.226 -12.029  1.00  0.00    -0.207 F 
ENDBRANCH   1   7
BRANCH   4  15
ATOM     15  C   UNL     1       0.091   2.729  -3.819  1.00  0.00     0.339 C 
ATOM     16  O   UNL     1      -0.061   3.246  -2.710  1.00  0.00    -0.246 OA
BRANCH  15  17
ATOM     17  O   UNL     1      -0.872   1.964  -4.402  1.00  0.00    -0.478 OA
ATOM     18  H   UNL     1      -1.636   1.821  -3.805  1.00  0.00     0.297 HD
ENDBRANCH  15  17
ENDBRANCH   4  15
BRANCH   5  19
ATOM     19  O   UNL     1       2.692   2.092  -2.867  1.00  0.00    -0.507 OA
ATOM     20  H   UNL     1       3.464   1.500  -2.824  1.00  0.00     0.293 HD
ENDBRANCH   5  19
TORSDOF 4
ENDMDL
MODEL 5
REMARK VINA RESULT:    -5.447      1.695      2.906
REMARK INTER + INTRA:          -7.041
REMARK INTER:                  -6.177
REMARK INTRA:                  -0.864
REMARK UNBOUND:                -0.638
REMARK SMILES O=C(O)c1cc(-c2ccc(F)cc2F)ccc1O
REMARK SMILES IDX 6 1 5 2 15 3 4 4 17 5 16 6 7 7 13 8 12 9 8 10 10 11 9 12
REMARK SMILES IDX 14 13 11 14 2 15 1 16 3 17 18 19
REMARK H PARENT 3 18 18 20
ROOT
ATOM      1  C   UNL     1       2.158   4.091  -7.421  1.00  0.00    -0.014 A 
ATOM      2  C   UNL     1       1.100   3.629  -6.639  1.00  0.00     0.028 A 
ATOM      3  C   UNL     1       3.439   4.183  -6.877  1.00  0.00     0.013 A 
ATOM      4  C   UNL     1       1.323   3.258  -5.313  1.00  0.00     0.102 A 
ATOM      5  C   UNL     1       2.604   3.350  -4.769  1.00  0.00     0.130 A 
ATOM      6  C   UNL     1       3.663   3.813  -5.552  1.00  0.00     0.048 A 
ENDROOT
BRANCH   1   7
ATOM      7  C   UNL     1       1.927   4.477  -8.797  1.00  0.00     0.018 A 
ATOM      8  C   UNL     1       2.622   3.843  -9.828  1.00  0.00     0.133 A 
ATOM      9  C   UNL     1       2.397   4.219 -11.153  1.00  0.00     0.079 A 
ATOM     10  C   UNL     1       1.008   5.484  -9.090  1.00  0.00     0.015 A 
ATOM     11  C   UNL     1       1.478   5.226 -11.446  1.00  0.00     0.126 A 
ATOM     12  C   UNL     1       0.784   5.859 -10.414  1.00  0.00     0.040 A 
ATOM     13  F   UNL     1       3.510   2.876  -9.562  1.00  0.00    -0.206 F 
ATOM     14  F   UNL     1       1.262   5.587 -12.717  1.00  0.00    -0.207 F 
ENDBRANCH   1   7
BRANCH   4  15
ATOM     15  C   UNL     1       0.205   2.777  -4.513  1.00  0.00     0.339 C 
ATOM     16  O   UNL     1      -0.702   2.047  -4.920  1.00  0.00    -0.246 OA
BRANCH  15  17
ATOM     17  O   UNL     1       0.256   3.224  -3.228  1.00  0.00    -0.478 OA
ATOM     18  H   UNL     1       1.050   3.776  -3.066  1.00  0.00     0.297 HD
ENDBRANCH  15  17
ENDBRANCH   4  15
BRANCH   5  19
ATOM     19  O   UNL     1       2.843   2.992  -3.475  1.00  0.00    -0.507 OA
ATOM     20  H   UNL     1       3.260   2.114  -3.461  1.00  0.00     0.293 HD
ENDBRANCH   5  19
TORSDOF 4
ENDMDL
MODEL 6
REMARK VINA RESULT:    -5.361      1.198      1.472
REMARK INTER + INTRA:          -6.939
REMARK INTER:                  -6.157
REMARK INTRA:                  -0.782
REMARK UNBOUND:                -0.638
REMARK SMILES O=C(O)c1cc(-c2ccc(F)cc2F)ccc1O
REMARK SMILES IDX 6 1 5 2 15 3 4 4 17 5 16 6 7 7 13 8 12 9 8 10 10 11 9 12
REMARK SMILES IDX 14 13 11 14 2 15 1 16 3 17 18 19
REMARK H PARENT 3 18 18 20
ROOT
ATOM      1  C   UNL     1       2.086   3.542  -7.387  1.00  0.00    -0.014 A 
ATOM      2  C   UNL     1       3.341   3.479  -6.783  1.00  0.00     0.028 A 
ATOM      3  C   UNL     1       0.958   3.091  -6.701  1.00  0.00     0.013 A 
ATOM      4  C   UNL     1       3.469   2.966  -5.492  1.00  0.00     0.102 A 
ATOM      5  C   UNL     1       2.342   2.516  -4.805  1.00  0.00     0.130 A 
ATOM      6  C   UNL     1       1.086   2.578  -5.410  1.00  0.00     0.048 A 
ENDROOT
BRANCH   1   7
ATOM      7  C   UNL     1       1.952   4.072  -8.727  1.00  0.00     0.018 A 
ATOM      8  C   UNL     1       2.748   3.576  -9.759  1.00  0.00     0.133 A 
ATOM      9  C   UNL     1       2.616   4.090 -11.049  1.00  0.00     0.079 A 
ATOM     10  C   UNL     1       1.025   5.082  -8.984  1.00  0.00     0.015 A 
ATOM     11  C   UNL     1       1.689   5.100 -11.306  1.00  0.00     0.126 A 
ATOM     12  C   UNL     1       0.894   5.595 -10.273  1.00  0.00     0.040 A 
ATOM     13  F   UNL     1       3.646   2.607  -9.528  1.00  0.00    -0.206 F 
ATOM     14  F   UNL     1       1.562   5.595 -12.544  1.00  0.00    -0.207 F 
ENDBRANCH   1   7
BRANCH   4  15
ATOM     15  C   UNL     1       4.789   2.910  -4.878  1.00  0.00     0.339 C 
ATOM     16  O   UNL     1       5.664   3.772  -4.986  1.00  0.00    -0.246 OA
BRANCH  15  17
ATOM     17  O   UNL     1       4.973   1.777  -4.147  1.00  0.00    -0.478 OA
ATOM     18  H   UNL     1       4.313   1.087  -4.371  1.00  0.00     0.297 HD
ENDBRANCH  15  17
ENDBRANCH   4  15
BRANCH   5  19
ATOM     19  O   UNL     1       2.446   2.011  -3.543  1.00  0.00    -0.507 OA
ATOM     20  H   UNL     1       1.553   1.868  -3.184  1.00  0.00     0.293 HD
ENDBRANCH   5  19
TORSDOF 4
ENDMDL
MODEL 7
REMARK VINA RESULT:    -5.185      4.319      6.654
REMARK INTER + INTRA:          -6.732
REMARK INTER:                  -5.658
REMARK INTRA:                  -1.074
REMARK UNBOUND:                -0.638
REMARK SMILES O=C(O)c1cc(-c2ccc(F)cc2F)ccc1O
REMARK SMILES IDX 6 1 5 2 15 3 4 4 17 5 16 6 7 7 13 8 12 9 8 10 10 11 9 12
REMARK SMILES IDX 14 13 11 14 2 15 1 16 3 17 18 19
REMARK H PARENT 3 18 18 20
ROOT
ATOM      1  C   UNL     1       2.029   4.306  -9.206  1.00  0.00    -0.014 A 
ATOM      2  C   UNL     1       1.047   5.246  -9.516  1.00  0.00     0.028 A 
ATOM      3  C   UNL     1       2.849   3.796 -10.212  1.00  0.00     0.013 A 
ATOM      4  C   UNL     1       0.885   5.677 -10.834  1.00  0.00     0.102 A 
ATOM      5  C   UNL     1       1.705   5.167 -11.840  1.00  0.00     0.130 A 
ATOM      6  C   UNL     1       2.688   4.226 -11.529  1.00  0.00     0.048 A 
ENDROOT
BRANCH   1   7
ATOM      7  C   UNL     1       2.197   3.858  -7.840  1.00  0.00     0.018 A 
ATOM      8  C   UNL     1       3.150   4.460  -7.017  1.00  0.00     0.133 A 
ATOM      9  C   UNL     1       3.308   4.025  -5.701  1.00  0.00     0.079 A 
ATOM     10  C   UNL     1       1.403   2.823  -7.347  1.00  0.00     0.015 A 
ATOM     11  C   UNL     1       2.515   2.989  -5.208  1.00  0.00     0.126 A 
ATOM     12  C   UNL     1       1.562   2.389  -6.031  1.00  0.00     0.040 A 
ATOM     13  F   UNL     1       3.923   5.454  -7.477  1.00  0.00    -0.206 F 
ATOM     14  F   UNL     1       2.666   2.571  -3.945  1.00  0.00    -0.207 F 
ENDBRANCH   1   7
BRANCH   4  15
ATOM     15  C   UNL     1      -0.146   6.660 -11.137  1.00  0.00     0.339 C 
ATOM     16  O   UNL     1      -0.535   6.959 -12.269  1.00  0.00    -0.246 OA
BRANCH  15  17
ATOM     17  O   UNL     1      -0.659   7.235 -10.016  1.00  0.00    -0.478 OA
ATOM     18  H   UNL     1      -1.590   6.969  -9.863  1.00  0.00     0.297 HD
ENDBRANCH  15  17
ENDBRANCH   4  15
BRANCH   5  19
ATOM     19  O   UNL     1       1.564   5.575 -13.133  1.00  0.00    -0.507 OA
ATOM     20  H   UNL     1       1.251   6.496 -13.142  1.00  0.00     0.293 HD
ENDBRANCH   5  19
TORSDOF 4
ENDMDL
MODEL 8
REMARK VINA RESULT:    -5.183      4.551      6.868
REMARK INTER + INTRA:          -6.730
REMARK INTER:                  -5.644
REMARK INTRA:                  -1.086
REMARK UNBOUND:                -0.638
REMARK SMILES O=C(O)c1cc(-c2ccc(F)cc2F)ccc1O
REMARK SMILES IDX 6 1 5 2 15 3 4 4 17 5 16 6 7 7 13 8 12 9 8 10 10 11 9 12
REMARK SMILES IDX 14 13 11 14 2 15 1 16 3 17 18 19
REMARK H PARENT 3 18 18 20
ROOT
ATOM      1  C   UNL     1       1.940   4.329  -9.210  1.00  0.00    -0.014 A 
ATOM      2  C   UNL     1       1.004   5.318  -9.504  1.00  0.00     0.028 A 
ATOM      3  C   UNL     1       2.723   3.784 -10.228  1.00  0.00     0.013 A 
ATOM      4  C   UNL     1       0.849   5.765 -10.817  1.00  0.00     0.102 A 
ATOM      5  C   UNL     1       1.631   5.220 -11.835  1.00  0.00     0.130 A 
ATOM      6  C   UNL     1       2.569   4.229 -11.541  1.00  0.00     0.048 A 
ENDROOT
BRANCH   1   7
ATOM      7  C   UNL     1       2.100   3.864  -7.849  1.00  0.00     0.018 A 
ATOM      8  C   UNL     1       1.303   2.827  -7.364  1.00  0.00     0.133 A 
ATOM      9  C   UNL     1       1.460   2.383  -6.051  1.00  0.00     0.079 A 
ATOM     10  C   UNL     1       3.055   4.455  -7.022  1.00  0.00     0.015 A 
ATOM     11  C   UNL     1       2.414   2.975  -5.224  1.00  0.00     0.126 A 
ATOM     12  C   UNL     1       3.212   4.011  -5.710  1.00  0.00     0.040 A 
ATOM     13  F   UNL     1       0.378   2.250  -8.145  1.00  0.00    -0.206 F 
ATOM     14  F   UNL     1       2.566   2.549  -3.963  1.00  0.00    -0.207 F 
ENDBRANCH   1   7
BRANCH   4  15
ATOM     15  C   UNL     1      -0.135   6.800 -11.104  1.00  0.00     0.339 C 
ATOM     16  O   UNL     1      -0.377   7.773 -10.386  1.00  0.00    -0.246 OA
BRANCH  15  17
ATOM     17  O   UNL     1      -0.784   6.586 -12.281  1.00  0.00    -0.478 OA
ATOM     18  H   UNL     1      -0.238   6.069 -12.910  1.00  0.00     0.297 HD
ENDBRANCH  15  17
ENDBRANCH   4  15
BRANCH   5  19
ATOM     19  O   UNL     1       1.496   5.642 -13.124  1.00  0.00    -0.507 OA
ATOM     20  H   UNL     1       1.158   6.554 -13.126  1.00  0.00     0.293 HD
ENDBRANCH   5  19
TORSDOF 4
ENDMDL
MODEL 9
REMARK VINA RESULT:    -5.183      3.959      6.235
REMARK INTER + INTRA:          -6.730
REMARK INTER:                  -5.659
REMARK INTRA:                  -1.071
REMARK UNBOUND:                -0.638
REMARK SMILES O=C(O)c1cc(-c2ccc(F)cc2F)ccc1O
REMARK SMILES IDX 6 1 5 2 15 3 4 4 17 5 16 6 7 7 13 8 12 9 8 10 10 11 9 12
REMARK SMILES IDX 14 13 11 14 2 15 1 16 3 17 18 19
REMARK H PARENT 3 18 18 20
ROOT
ATOM      1  C   UNL     1       2.044   4.279  -9.213  1.00  0.00    -0.014 A 
ATOM      2  C   UNL     1       2.883   3.769 -10.203  1.00  0.00     0.028 A 
ATOM      3  C   UNL     1       1.061   5.212  -9.545  1.00  0.00     0.013 A 
ATOM      4  C   UNL     1       2.740   4.191 -11.525  1.00  0.00     0.102 A 
ATOM      5  C   UNL     1       1.757   5.123 -11.857  1.00  0.00     0.130 A 
ATOM      6  C   UNL     1       0.917   5.634 -10.866  1.00  0.00     0.048 A 
ENDROOT
BRANCH   1   7
ATOM      7  C   UNL     1       2.192   3.844  -7.841  1.00  0.00     0.018 A 
ATOM      8  C   UNL     1       3.134   4.452  -7.011  1.00  0.00     0.133 A 
ATOM      9  C   UNL     1       3.274   4.029  -5.689  1.00  0.00     0.079 A 
ATOM     10  C   UNL     1       1.391   2.814  -7.350  1.00  0.00     0.015 A 
ATOM     11  C   UNL     1       2.473   2.998  -5.198  1.00  0.00     0.126 A 
ATOM     12  C   UNL     1       1.531   2.391  -6.028  1.00  0.00     0.040 A 
ATOM     13  F   UNL     1       3.914   5.442  -7.469  1.00  0.00    -0.206 F 
ATOM     14  F   UNL     1       2.607   2.591  -3.929  1.00  0.00    -0.207 F 
ENDBRANCH   1   7
BRANCH   4  15
ATOM     15  C   UNL     1       3.626   3.645 -12.544  1.00  0.00     0.339 C 
ATOM     16  O   UNL     1       3.810   4.129 -13.663  1.00  0.00    -0.246 OA
BRANCH  15  17
ATOM     17  O   UNL     1       4.257   2.512 -12.130  1.00  0.00    -0.478 OA
ATOM     18  H   UNL     1       4.918   2.203 -12.784  1.00  0.00     0.297 HD
ENDBRANCH  15  17
ENDBRANCH   4  15
BRANCH   5  19
ATOM     19  O   UNL     1       1.601   5.548 -13.143  1.00  0.00    -0.507 OA
ATOM     20  H   UNL     1       2.362   6.101 -13.389  1.00  0.00     0.293 HD
ENDBRANCH   5  19
TORSDOF 4
ENDMDL
