MODEL 1
REMARK VINA RESULT:    -5.275      0.000      0.000
REMARK INTER + INTRA:          -7.346
REMARK INTER:                  -6.509
REMARK INTRA:                  -0.837
REMARK UNBOUND:                -0.837
REMARK SMILES Cc1ccc(C(=O)c2cc(O)c(O)c([N+](=O)[O-])c2)cc1
REMARK SMILES IDX 8 1 18 2 9 3 14 4 10 5 12 6 6 7 7 8 5 9 4 10 19 11 3 12
REMARK SMILES IDX 20 13 2 14 1 15 15 16 17 17 16 18 11 19 13 21
REMARK H PARENT 11 20 13 22
ROOT
ATOM      1  C   UNL     1       2.803   2.730  -6.856  1.00  0.00     0.033 A 
ATOM      2  C   UNL     1       1.571   2.854  -6.256  1.00  0.00     0.102 A 
ATOM      3  C   UNL     1       3.955   2.476  -6.150  1.00  0.00     0.063 A 
ATOM      4  C   UNL     1       1.487   2.715  -4.871  1.00  0.00     0.315 A 
ATOM      5  C   UNL     1       3.871   2.338  -4.764  1.00  0.00     0.165 A 
ATOM      6  C   UNL     1       2.637   2.457  -4.125  1.00  0.00     0.237 A 
ENDROOT
BRANCH   1   7
ATOM      7  C   UNL     1       2.893   2.879  -8.340  1.00  0.00     0.193 C 
ATOM      8  O   UNL     1       3.653   2.106  -8.944  1.00  0.00    -0.289 OA
BRANCH   7   9
ATOM      9  C   UNL     1       2.133   3.880  -9.071  1.00  0.00     0.023 A 
ATOM     10  C   UNL     1       2.676   5.146  -9.289  1.00  0.00     0.012 A 
ATOM     11  C   UNL     1       0.861   3.574  -9.555  1.00  0.00     0.012 A 
ATOM     12  C   UNL     1       1.946   6.106  -9.991  1.00  0.00     0.004 A 
ATOM     13  C   UNL     1       0.131   4.533 -10.257  1.00  0.00     0.004 A 
ATOM     14  C   UNL     1       0.673   5.800 -10.475  1.00  0.00    -0.051 A 
ATOM     15  C   UNL     1      -0.106   6.826 -11.223  1.00  0.00     0.044 C 
ENDBRANCH   7   9
ENDBRANCH   1   7
BRANCH   4  16
ATOM     16  N   UNL     1       0.221   2.841  -4.237  1.00  0.00     0.066 N 
ATOM     17  O   UNL     1       0.171   3.289  -3.066  1.00  0.00    -0.258 OA
ATOM     18  O   UNL     1      -0.808   2.501  -4.866  1.00  0.00    -0.258 OA
ENDBRANCH   4  16
BRANCH   5  19
ATOM     19  O   UNL     1       5.002   2.085  -4.048  1.00  0.00    -0.504 OA
ATOM     20  H   UNL     1       4.768   1.641  -3.217  1.00  0.00     0.293 HD
ENDBRANCH   5  19
BRANCH   6  21
ATOM     21  O   UNL     1       2.567   2.319  -2.769  1.00  0.00    -0.500 OA
ATOM     22  H   UNL     1       1.727   1.899  -2.526  1.00  0.00     0.294 HD
ENDBRANCH   6  21
TORSDOF 5
ENDMDL
MODEL 2
REMARK VINA RESULT:    -5.238      2.059      3.535
REMARK INTER + INTRA:          -7.300
REMARK INTER:                  -6.443
REMARK INTRA:                  -0.858
REMARK UNBOUND:                -0.837
REMARK SMILES Cc1ccc(C(=O)c2cc(O)c(O)c([N+](=O)[O-])c2)cc1
REMARK SMILES IDX 8 1 18 2 9 3 14 4 10 5 12 6 6 7 7 8 5 9 4 10 19 11 3 12
REMARK SMILES IDX 20 13 2 14 1 15 15 16 17 17 16 18 11 19 13 21
REMARK H PARENT 11 20 13 22
ROOT
ATOM      1  C   UNL     1       1.753   4.139  -6.305  1.00  0.00     0.033 A 
ATOM      2  C   UNL     1       3.080   3.855  -6.081  1.00  0.00     0.102 A 
ATOM      3  C   UNL     1       0.752   3.756  -5.443  1.00  0.00     0.063 A 
ATOM      4  C   UNL     1       3.426   3.149  -4.928  1.00  0.00     0.315 A 
ATOM      5  C   UNL     1       1.098   3.050  -4.291  1.00  0.00     0.165 A 
ATOM      6  C   UNL     1       2.436   2.747  -4.033  1.00  0.00     0.237 A 
ENDROOT
BRANCH   1   7
ATOM      7  C   UNL     1       1.382   4.894  -7.539  1.00  0.00     0.193 C 
ATOM      8  O   UNL     1       0.584   5.835  -7.412  1.00  0.00    -0.289 OA
BRANCH   7   9
ATOM      9  C   UNL     1       1.921   4.561  -8.848  1.00  0.00     0.023 A 
ATOM     10  C   UNL     1       1.266   3.632  -9.656  1.00  0.00     0.012 A 
ATOM     11  C   UNL     1       3.092   5.172  -9.296  1.00  0.00     0.012 A 
ATOM     12  C   UNL     1       1.783   3.313 -10.912  1.00  0.00     0.004 A 
ATOM     13  C   UNL     1       3.609   4.854 -10.553  1.00  0.00     0.004 A 
ATOM     14  C   UNL     1       2.955   3.924 -11.361  1.00  0.00    -0.051 A 
ATOM     15  C   UNL     1       3.507   3.582 -12.702  1.00  0.00     0.044 C 
ENDBRANCH   7   9
ENDBRANCH   1   7
BRANCH   4  16
ATOM     16  N   UNL     1       4.794   2.849  -4.683  1.00  0.00     0.066 N 
ATOM     17  O   UNL     1       5.089   1.748  -4.159  1.00  0.00    -0.258 OA
ATOM     18  O   UNL     1       5.666   3.693  -4.997  1.00  0.00    -0.258 OA
ENDBRANCH   4  16
BRANCH   5  19
ATOM     19  O   UNL     1       0.120   2.663  -3.425  1.00  0.00    -0.504 OA
ATOM     20  H   UNL     1      -0.396   3.439  -3.150  1.00  0.00     0.293 HD
ENDBRANCH   5  19
BRANCH   6  21
ATOM     21  O   UNL     1       2.761   2.056  -2.902  1.00  0.00    -0.500 OA
ATOM     22  H   UNL     1       2.743   1.104  -3.085  1.00  0.00     0.294 HD
ENDBRANCH   6  21
TORSDOF 5
ENDMDL
MODEL 3
REMARK VINA RESULT:    -4.766      1.683      3.155
REMARK INTER + INTRA:          -6.718
REMARK INTER:                  -6.076
REMARK INTRA:                  -0.642
REMARK UNBOUND:                -0.837
REMARK SMILES Cc1ccc(C(=O)c2cc(O)c(O)c([N+](=O)[O-])c2)cc1
REMARK SMILES IDX 8 1 18 2 9 3 14 4 10 5 12 6 6 7 7 8 5 9 4 10 19 11 3 12
REMARK SMILES IDX 20 13 2 14 1 15 15 16 17 17 16 18 11 19 13 21
REMARK H PARENT 11 20 13 22
ROOT
ATOM      1  C   UNL     1       1.359   2.313  -6.167  1.00  0.00     0.033 A 
ATOM      2  C   UNL     1       2.704   2.086  -5.985  1.00  0.00     0.102 A 
ATOM      3  C   UNL     1       0.524   2.708  -5.149  1.00  0.00     0.063 A 
ATOM      4  C   UNL     1       3.244   2.267  -4.712  1.00  0.00     0.315 A 
ATOM      5  C   UNL     1       1.064   2.889  -3.876  1.00  0.00     0.165 A 
ATOM      6  C   UNL     1       2.425   2.668  -3.657  1.00  0.00     0.237 A 
ENDROOT
BRANCH   1   7
ATOM      7  C   UNL     1       0.780   2.119  -7.531  1.00  0.00     0.193 C 
ATOM      8  O   UNL     1       0.156   1.068  -7.740  1.00  0.00    -0.289 OA
BRANCH   7   9
ATOM      9  C   UNL     1       0.927   3.107  -8.588  1.00  0.00     0.023 A 
ATOM     10  C   UNL     1      -0.028   3.192  -9.601  1.00  0.00     0.012 A 
ATOM     11  C   UNL     1       2.023   3.970  -8.589  1.00  0.00     0.012 A 
ATOM     12  C   UNL     1       0.114   4.139 -10.615  1.00  0.00     0.004 A 
ATOM     13  C   UNL     1       2.165   4.918  -9.602  1.00  0.00     0.004 A 
ATOM     14  C   UNL     1       1.210   5.003 -10.616  1.00  0.00    -0.051 A 
ATOM     15  C   UNL     1       1.361   6.015 -11.700  1.00  0.00     0.044 C 
ENDBRANCH   7   9
ENDBRANCH   1   7
BRANCH   4  16
ATOM     16  N   UNL     1       4.632   2.038  -4.508  1.00  0.00     0.066 N 
ATOM     17  O   UNL     1       5.457   2.593  -5.273  1.00  0.00    -0.258 OA
ATOM     18  O   UNL     1       4.991   1.287  -3.571  1.00  0.00    -0.258 OA
ENDBRANCH   4  16
BRANCH   5  19
ATOM     19  O   UNL     1       0.252   3.281  -2.854  1.00  0.00    -0.504 OA
ATOM     20  H   UNL     1       0.636   4.057  -2.413  1.00  0.00     0.293 HD
ENDBRANCH   5  19
BRANCH   6  21
ATOM     21  O   UNL     1       2.941   2.849  -2.407  1.00  0.00    -0.500 OA
ATOM     22  H   UNL     1       2.846   2.031  -1.894  1.00  0.00     0.294 HD
ENDBRANCH   6  21
TORSDOF 5
ENDMDL
MODEL 4
REMARK VINA RESULT:    -4.762      1.751      2.164
REMARK INTER + INTRA:          -6.714
REMARK INTER:                  -6.168
REMARK INTRA:                  -0.546
REMARK UNBOUND:                -0.837
REMARK SMILES Cc1ccc(C(=O)c2cc(O)c(O)c([N+](=O)[O-])c2)cc1
REMARK SMILES IDX 8 1 18 2 9 3 14 4 10 5 12 6 6 7 7 8 5 9 4 10 19 11 3 12
REMARK SMILES IDX 20 13 2 14 1 15 15 16 17 17 16 18 11 19 13 21
REMARK H PARENT 11 20 13 22
ROOT
ATOM      1  C   UNL     1       3.298   4.146  -5.792  1.00  0.00     0.033 A 
ATOM      2  C   UNL     1       2.016   4.077  -5.299  1.00  0.00     0.102 A 
ATOM      3  C   UNL     1       4.314   3.335  -5.346  1.00  0.00     0.063 A 
ATOM      4  C   UNL     1       1.734   3.141  -4.304  1.00  0.00     0.315 A 
ATOM      5  C   UNL     1       4.032   2.399  -4.350  1.00  0.00     0.165 A 
ATOM      6  C   UNL     1       2.741   2.302  -3.829  1.00  0.00     0.237 A 
ENDROOT
BRANCH   1   7
ATOM      7  C   UNL     1       3.601   5.148  -6.858  1.00  0.00     0.193 C 
ATOM      8  O   UNL     1       4.204   6.177  -6.517  1.00  0.00    -0.289 OA
BRANCH   7   9
ATOM      9  C   UNL     1       3.216   4.950  -8.247  1.00  0.00     0.023 A 
ATOM     10  C   UNL     1       2.093   4.183  -8.556  1.00  0.00     0.012 A 
ATOM     11  C   UNL     1       3.970   5.527  -9.268  1.00  0.00     0.012 A 
ATOM     12  C   UNL     1       1.724   3.994  -9.888  1.00  0.00     0.004 A 
ATOM     13  C   UNL     1       3.601   5.338 -10.601  1.00  0.00     0.004 A 
ATOM     14  C   UNL     1       2.478   4.571 -10.911  1.00  0.00    -0.051 A 
ATOM     15  C   UNL     1       2.083   4.367 -12.334  1.00  0.00     0.044 C 
ENDBRANCH   7   9
ENDBRANCH   1   7
BRANCH   4  16
ATOM     16  N   UNL     1       0.412   3.058  -3.785  1.00  0.00     0.066 N 
ATOM     17  O   UNL     1       0.222   3.306  -2.570  1.00  0.00    -0.258 OA
ATOM     18  O   UNL     1      -0.522   2.739  -4.556  1.00  0.00    -0.258 OA
ENDBRANCH   4  16
BRANCH   5  19
ATOM     19  O   UNL     1       5.027   1.586  -3.896  1.00  0.00    -0.504 OA
ATOM     20  H   UNL     1       4.697   1.051  -3.155  1.00  0.00     0.293 HD
ENDBRANCH   5  19
BRANCH   6  21
ATOM     21  O   UNL     1       2.477   1.383  -2.856  1.00  0.00    -0.500 OA
ATOM     22  H   UNL     1       1.676   1.640  -2.373  1.00  0.00     0.294 HD
ENDBRANCH   6  21
TORSDOF 5
ENDMDL
MODEL 5
REMARK VINA RESULT:    -4.562      4.231      7.379
REMARK INTER + INTRA:          -6.467
REMARK INTER:                  -5.675
REMARK INTRA:                  -0.792
REMARK UNBOUND:                -0.837
REMARK SMILES Cc1ccc(C(=O)c2cc(O)c(O)c([N+](=O)[O-])c2)cc1
REMARK SMILES IDX 8 1 18 2 9 3 14 4 10 5 12 6 6 7 7 8 5 9 4 10 19 11 3 12
REMARK SMILES IDX 20 13 2 14 1 15 15 16 17 17 16 18 11 19 13 21
REMARK H PARENT 11 20 13 22
ROOT
ATOM      1  C   UNL     1       1.504   5.041 -10.496  1.00  0.00     0.033 A 
ATOM      2  C   UNL     1       1.642   5.106 -11.864  1.00  0.00     0.102 A 
ATOM      3  C   UNL     1       0.599   5.808  -9.801  1.00  0.00     0.063 A 
ATOM      4  C   UNL     1       0.827   5.986 -12.575  1.00  0.00     0.315 A 
ATOM      5  C   UNL     1      -0.215   6.689 -10.512  1.00  0.00     0.165 A 
ATOM      6  C   UNL     1      -0.101   6.778 -11.900  1.00  0.00     0.237 A 
ENDROOT
BRANCH   1   7
ATOM      7  C   UNL     1       2.376   4.098  -9.734  1.00  0.00     0.193 C 
ATOM      8  O   UNL     1       3.291   3.539 -10.357  1.00  0.00    -0.289 OA
BRANCH   7   9
ATOM      9  C   UNL     1       2.183   3.829  -8.318  1.00  0.00     0.023 A 
ATOM     10  C   UNL     1       1.261   2.863  -7.911  1.00  0.00     0.012 A 
ATOM     11  C   UNL     1       2.918   4.535  -7.367  1.00  0.00     0.012 A 
ATOM     12  C   UNL     1       1.076   2.605  -6.553  1.00  0.00     0.004 A 
ATOM     13  C   UNL     1       2.733   4.277  -6.008  1.00  0.00     0.004 A 
ATOM     14  C   UNL     1       1.812   3.311  -5.601  1.00  0.00    -0.051 A 
ATOM     15  C   UNL     1       1.612   3.036  -4.150  1.00  0.00     0.044 C 
ENDBRANCH   7   9
ENDBRANCH   1   7
BRANCH   4  16
ATOM     16  N   UNL     1       0.958   6.063 -13.989  1.00  0.00     0.066 N 
ATOM     17  O   UNL     1       2.107   6.099 -14.490  1.00  0.00    -0.258 OA
ATOM     18  O   UNL     1      -0.079   6.092 -14.693  1.00  0.00    -0.258 OA
ENDBRANCH   4  16
BRANCH   5  19
ATOM     19  O   UNL     1      -1.118   7.456  -9.840  1.00  0.00    -0.504 OA
ATOM     20  H   UNL     1      -1.503   6.942  -9.111  1.00  0.00     0.293 HD
ENDBRANCH   5  19
BRANCH   6  21
ATOM     21  O   UNL     1      -0.904   7.643 -12.586  1.00  0.00    -0.500 OA
ATOM     22  H   UNL     1      -1.696   7.838 -12.061  1.00  0.00     0.294 HD
ENDBRANCH   6  21
TORSDOF 5
ENDMDL
MODEL 6
REMARK VINA RESULT:    -4.560      4.148      7.262
REMARK INTER + INTRA:          -6.464
REMARK INTER:                  -5.669
REMARK INTRA:                  -0.795
REMARK UNBOUND:                -0.837
REMARK SMILES Cc1ccc(C(=O)c2cc(O)c(O)c([N+](=O)[O-])c2)cc1
REMARK SMILES IDX 8 1 18 2 9 3 14 4 10 5 12 6 6 7 7 8 5 9 4 10 19 11 3 12
REMARK SMILES IDX 20 13 2 14 1 15 15 16 17 17 16 18 11 19 13 21
REMARK H PARENT 11 20 13 22
ROOT
ATOM      1  C   UNL     1       2.180   4.461 -10.721  1.00  0.00     0.033 A 
ATOM      2  C   UNL     1       1.777   5.190 -11.816  1.00  0.00     0.102 A 
ATOM      3  C   UNL     1       3.154   3.494 -10.786  1.00  0.00     0.063 A 
ATOM      4  C   UNL     1       2.385   4.938 -13.046  1.00  0.00     0.315 A 
ATOM      5  C   UNL     1       3.762   3.241 -12.017  1.00  0.00     0.165 A 
ATOM      6  C   UNL     1       3.377   3.964 -13.147  1.00  0.00     0.237 A 
ENDROOT
BRANCH   1   7
ATOM      7  C   UNL     1       1.528   4.731  -9.404  1.00  0.00     0.193 C 
ATOM      8  O   UNL     1       0.549   5.491  -9.399  1.00  0.00    -0.289 OA
BRANCH   7   9
ATOM      9  C   UNL     1       2.003   4.138  -8.164  1.00  0.00     0.023 A 
ATOM     10  C   UNL     1       3.041   4.742  -7.454  1.00  0.00     0.012 A 
ATOM     11  C   UNL     1       1.420   2.966  -7.683  1.00  0.00     0.012 A 
ATOM     12  C   UNL     1       3.496   4.174  -6.265  1.00  0.00     0.004 A 
ATOM     13  C   UNL     1       1.874   2.397  -6.493  1.00  0.00     0.004 A 
ATOM     14  C   UNL     1       2.913   3.001  -5.783  1.00  0.00    -0.051 A 
ATOM     15  C   UNL     1       3.400   2.393  -4.512  1.00  0.00     0.044 C 
ENDBRANCH   7   9
ENDBRANCH   1   7
BRANCH   4  16
ATOM     16  N   UNL     1       1.979   5.684 -14.186  1.00  0.00     0.066 N 
ATOM     17  O   UNL     1       0.756   5.897 -14.367  1.00  0.00    -0.258 OA
ATOM     18  O   UNL     1       2.855   6.108 -14.976  1.00  0.00    -0.258 OA
ENDBRANCH   4  16
BRANCH   5  19
ATOM     19  O   UNL     1       4.731   2.286 -12.100  1.00  0.00    -0.504 OA
ATOM     20  H   UNL     1       4.350   1.417 -11.892  1.00  0.00     0.293 HD
ENDBRANCH   5  19
BRANCH   6  21
ATOM     21  O   UNL     1       3.980   3.708 -14.344  1.00  0.00    -0.500 OA
ATOM     22  H   UNL     1       3.397   3.158 -14.891  1.00  0.00     0.294 HD
ENDBRANCH   6  21
TORSDOF 5
ENDMDL
MODEL 7
REMARK VINA RESULT:    -4.527      8.906     12.198
REMARK INTER + INTRA:          -6.423
REMARK INTER:                  -5.579
REMARK INTRA:                  -0.844
REMARK UNBOUND:                -0.837
REMARK SMILES Cc1ccc(C(=O)c2cc(O)c(O)c([N+](=O)[O-])c2)cc1
REMARK SMILES IDX 8 1 18 2 9 3 14 4 10 5 12 6 6 7 7 8 5 9 4 10 19 11 3 12
REMARK SMILES IDX 20 13 2 14 1 15 15 16 17 17 16 18 11 19 13 21
REMARK H PARENT 11 20 13 22
ROOT
ATOM      1  C   UNL     1      -1.860  11.465 -13.598  1.00  0.00     0.033 A 
ATOM      2  C   UNL     1      -2.237  11.915 -14.842  1.00  0.00     0.102 A 
ATOM      3  C   UNL     1      -2.594  11.710 -12.462  1.00  0.00     0.063 A 
ATOM      4  C   UNL     1      -3.416  12.652 -14.956  1.00  0.00     0.315 A 
ATOM      5  C   UNL     1      -3.773  12.447 -12.576  1.00  0.00     0.165 A 
ATOM      6  C   UNL     1      -4.184  12.918 -13.824  1.00  0.00     0.237 A 
ENDROOT
BRANCH   1   7
ATOM      7  C   UNL     1      -0.597  10.675 -13.476  1.00  0.00     0.193 C 
ATOM      8  O   UNL     1       0.418  11.139 -14.016  1.00  0.00    -0.289 OA
BRANCH   7   9
ATOM      9  C   UNL     1      -0.534   9.413 -12.758  1.00  0.00     0.023 A 
ATOM     10  C   UNL     1      -0.758   8.213 -13.435  1.00  0.00     0.012 A 
ATOM     11  C   UNL     1      -0.248   9.400 -11.393  1.00  0.00     0.012 A 
ATOM     12  C   UNL     1      -0.696   7.002 -12.746  1.00  0.00     0.004 A 
ATOM     13  C   UNL     1      -0.186   8.188 -10.703  1.00  0.00     0.004 A 
ATOM     14  C   UNL     1      -0.410   6.989 -11.380  1.00  0.00    -0.051 A 
ATOM     15  C   UNL     1      -0.346   5.694 -10.644  1.00  0.00     0.044 C 
ENDBRANCH   7   9
ENDBRANCH   1   7
BRANCH   4  16
ATOM     16  N   UNL     1      -3.818  13.124 -16.236  1.00  0.00     0.066 N 
ATOM     17  O   UNL     1      -5.041  13.148 -16.516  1.00  0.00    -0.258 OA
ATOM     18  O   UNL     1      -2.940  13.501 -17.046  1.00  0.00    -0.258 OA
ENDBRANCH   4  16
BRANCH   5  19
ATOM     19  O   UNL     1      -4.514  12.699 -11.460  1.00  0.00    -0.504 OA
ATOM     20  H   UNL     1      -4.231  12.111 -10.742  1.00  0.00     0.293 HD
ENDBRANCH   5  19
BRANCH   6  21
ATOM     21  O   UNL     1      -5.339  13.638 -13.922  1.00  0.00    -0.500 OA
ATOM     22  H   UNL     1      -5.224  14.500 -13.493  1.00  0.00     0.294 HD
ENDBRANCH   6  21
TORSDOF 5
ENDMDL
MODEL 8
REMARK VINA RESULT:    -4.449      3.874      7.064
REMARK INTER + INTRA:          -6.326
REMARK INTER:                  -5.356
REMARK INTRA:                  -0.971
REMARK UNBOUND:                -0.837
REMARK SMILES Cc1ccc(C(=O)c2cc(O)c(O)c([N+](=O)[O-])c2)cc1
REMARK SMILES IDX 8 1 18 2 9 3 14 4 10 5 12 6 6 7 7 8 5 9 4 10 19 11 3 12
REMARK SMILES IDX 20 13 2 14 1 15 15 16 17 17 16 18 11 19 13 21
REMARK H PARENT 11 20 13 22
ROOT
ATOM      1  C   UNL     1       2.552   4.926  -9.812  1.00  0.00     0.033 A 
ATOM      2  C   UNL     1       3.274   4.242 -10.762  1.00  0.00     0.102 A 
ATOM      3  C   UNL     1       1.474   5.720 -10.123  1.00  0.00     0.063 A 
ATOM      4  C   UNL     1       2.895   4.358 -12.099  1.00  0.00     0.315 A 
ATOM      5  C   UNL     1       1.095   5.837 -11.461  1.00  0.00     0.165 A 
ATOM      6  C   UNL     1       1.806   5.155 -12.449  1.00  0.00     0.237 A 
ENDROOT
BRANCH   1   7
ATOM      7  C   UNL     1       2.958   4.801  -8.379  1.00  0.00     0.193 C 
ATOM      8  O   UNL     1       4.073   5.243  -8.064  1.00  0.00    -0.289 OA
BRANCH   7   9
ATOM      9  C   UNL     1       2.099   4.193  -7.376  1.00  0.00     0.023 A 
ATOM     10  C   UNL     1       1.908   4.823  -6.147  1.00  0.00     0.012 A 
ATOM     11  C   UNL     1       1.467   2.978  -7.643  1.00  0.00     0.012 A 
ATOM     12  C   UNL     1       1.084   4.239  -5.184  1.00  0.00     0.004 A 
ATOM     13  C   UNL     1       0.643   2.394  -6.680  1.00  0.00     0.004 A 
ATOM     14  C   UNL     1       0.451   3.024  -5.451  1.00  0.00    -0.051 A 
ATOM     15  C   UNL     1      -0.428   2.400  -4.422  1.00  0.00     0.044 C 
ENDBRANCH   7   9
ENDBRANCH   1   7
BRANCH   4  16
ATOM     16  N   UNL     1       3.632   3.656 -13.093  1.00  0.00     0.066 N 
ATOM     17  O   UNL     1       3.955   4.258 -14.146  1.00  0.00    -0.258 OA
ATOM     18  O   UNL     1       3.938   2.459 -12.887  1.00  0.00    -0.258 OA
ENDBRANCH   4  16
BRANCH   5  19
ATOM     19  O   UNL     1       0.028   6.619 -11.787  1.00  0.00    -0.504 OA
ATOM     20  H   UNL     1      -0.053   7.343 -11.145  1.00  0.00     0.293 HD
ENDBRANCH   5  19
BRANCH   6  21
ATOM     21  O   UNL     1       1.426   5.277 -13.754  1.00  0.00    -0.500 OA
ATOM     22  H   UNL     1       2.067   4.826 -14.324  1.00  0.00     0.294 HD
ENDBRANCH   6  21
TORSDOF 5
ENDMDL
MODEL 9
REMARK VINA RESULT:    -4.425      1.268      2.701
REMARK INTER + INTRA:          -6.297
REMARK INTER:                  -5.556
REMARK INTRA:                  -0.741
REMARK UNBOUND:                -0.837
REMARK SMILES Cc1ccc(C(=O)c2cc(O)c(O)c([N+](=O)[O-])c2)cc1
REMARK SMILES IDX 8 1 18 2 9 3 14 4 10 5 12 6 6 7 7 8 5 9 4 10 19 11 3 12
REMARK SMILES IDX 20 13 2 14 1 15 15 16 17 17 16 18 11 19 13 21
REMARK H PARENT 11 20 13 22
ROOT
ATOM      1  C   UNL     1       2.569   2.969  -7.344  1.00  0.00     0.033 A 
ATOM      2  C   UNL     1       3.727   2.880  -6.607  1.00  0.00     0.102 A 
ATOM      3  C   UNL     1       1.319   2.831  -6.790  1.00  0.00     0.063 A 
ATOM      4  C   UNL     1       3.628   2.641  -5.237  1.00  0.00     0.315 A 
ATOM      5  C   UNL     1       1.220   2.592  -5.419  1.00  0.00     0.165 A 
ATOM      6  C   UNL     1       2.375   2.497  -4.642  1.00  0.00     0.237 A 
ENDROOT
BRANCH   1   7
ATOM      7  C   UNL     1       2.674   3.224  -8.813  1.00  0.00     0.193 C 
ATOM      8  O   UNL     1       3.472   2.525  -9.456  1.00  0.00    -0.289 OA
BRANCH   7   9
ATOM      9  C   UNL     1       1.886   4.244  -9.485  1.00  0.00     0.023 A 
ATOM     10  C   UNL     1       2.404   5.528  -9.654  1.00  0.00     0.012 A 
ATOM     11  C   UNL     1       0.611   3.939  -9.962  1.00  0.00     0.012 A 
ATOM     12  C   UNL     1       1.647   6.506 -10.299  1.00  0.00     0.004 A 
ATOM     13  C   UNL     1      -0.146   4.917 -10.608  1.00  0.00     0.004 A 
ATOM     14  C   UNL     1       0.372   6.201 -10.777  1.00  0.00    -0.051 A 
ATOM     15  C   UNL     1      -0.437   7.247 -11.465  1.00  0.00     0.044 C 
ENDBRANCH   7   9
ENDBRANCH   1   7
BRANCH   4  16
ATOM     16  N   UNL     1       4.817   2.547  -4.461  1.00  0.00     0.066 N 
ATOM     17  O   UNL     1       5.043   1.490  -3.825  1.00  0.00    -0.258 OA
ATOM     18  O   UNL     1       5.603   3.523  -4.437  1.00  0.00    -0.258 OA
ENDBRANCH   4  16
BRANCH   5  19
ATOM     19  O   UNL     1      -0.011   2.453  -4.852  1.00  0.00    -0.504 OA
ATOM     20  H   UNL     1      -0.150   3.160  -4.200  1.00  0.00     0.293 HD
ENDBRANCH   5  19
BRANCH   6  21
ATOM     21  O   UNL     1       2.266   2.263  -3.302  1.00  0.00    -0.500 OA
ATOM     22  H   UNL     1       1.561   2.817  -2.931  1.00  0.00     0.294 HD
ENDBRANCH   6  21
TORSDOF 5
ENDMDL
