MODEL 1
REMARK VINA RESULT:    -6.701      0.000      0.000
REMARK INTER + INTRA:          -8.474
REMARK INTER:                  -7.877
REMARK INTRA:                  -0.598
REMARK UNBOUND:                -0.598
REMARK SMILES O=C(O)c1cc(-c2ccc(F)cc2F)ccc1O
REMARK SMILES IDX 6 1 5 2 15 3 4 4 17 5 16 6 7 7 13 8 12 9 8 10 10 11 9 12
REMARK SMILES IDX 14 13 11 14 2 15 1 16 3 17 18 19
REMARK H PARENT 3 18 18 20
ROOT
ATOM      1  C   UNL     1      -1.818   9.321   1.481  1.00  0.00    -0.014 A 
ATOM      2  C   UNL     1      -0.492   8.958   1.250  1.00  0.00     0.028 A 
ATOM      3  C   UNL     1      -2.808   8.340   1.545  1.00  0.00     0.013 A 
ATOM      4  C   UNL     1      -0.154   7.615   1.084  1.00  0.00     0.102 A 
ATOM      5  C   UNL     1      -1.144   6.634   1.148  1.00  0.00     0.130 A 
ATOM      6  C   UNL     1      -2.472   6.997   1.378  1.00  0.00     0.048 A 
ENDROOT
BRANCH   1   7
ATOM      7  C   UNL     1      -2.169  10.714   1.652  1.00  0.00     0.018 A 
ATOM      8  C   UNL     1      -1.412  11.528   2.495  1.00  0.00     0.133 A 
ATOM      9  C   UNL     1      -1.754  12.871   2.658  1.00  0.00     0.079 A 
ATOM     10  C   UNL     1      -3.266  11.242   0.972  1.00  0.00     0.015 A 
ATOM     11  C   UNL     1      -2.851  13.399   1.978  1.00  0.00     0.126 A 
ATOM     12  C   UNL     1      -3.607  12.584   1.135  1.00  0.00     0.040 A 
ATOM     13  F   UNL     1      -0.356  11.036   3.158  1.00  0.00    -0.206 F 
ATOM     14  F   UNL     1      -3.180  14.688   2.134  1.00  0.00    -0.207 F 
ENDBRANCH   1   7
BRANCH   4  15
ATOM     15  C   UNL     1       1.237   7.257   0.844  1.00  0.00     0.339 C 
ATOM     16  O   UNL     1       1.646   6.571  -0.096  1.00  0.00    -0.246 OA
BRANCH  15  17
ATOM     17  O   UNL     1       2.074   7.769   1.787  1.00  0.00    -0.478 OA
ATOM     18  H   UNL     1       2.137   7.187   2.574  1.00  0.00     0.297 HD
ENDBRANCH  15  17
ENDBRANCH   4  15
BRANCH   5  19
ATOM     19  O   UNL     1      -0.835   5.316   0.988  1.00  0.00    -0.507 OA
ATOM     20  H   UNL     1      -0.086   5.238   0.373  1.00  0.00     0.293 HD
ENDBRANCH   5  19
TORSDOF 4
ENDMDL
MODEL 2
REMARK VINA RESULT:    -6.693      1.644      3.134
REMARK INTER + INTRA:          -8.465
REMARK INTER:                  -7.845
REMARK INTRA:                  -0.619
REMARK UNBOUND:                -0.598
REMARK SMILES O=C(O)c1cc(-c2ccc(F)cc2F)ccc1O
REMARK SMILES IDX 6 1 5 2 15 3 4 4 17 5 16 6 7 7 13 8 12 9 8 10 10 11 9 12
REMARK SMILES IDX 14 13 11 14 2 15 1 16 3 17 18 19
REMARK H PARENT 3 18 18 20
ROOT
ATOM      1  C   UNL     1      -1.831   9.384   1.332  1.00  0.00    -0.014 A 
ATOM      2  C   UNL     1      -2.830   8.414   1.391  1.00  0.00     0.028 A 
ATOM      3  C   UNL     1      -0.512   9.012   1.073  1.00  0.00     0.013 A 
ATOM      4  C   UNL     1      -2.512   7.071   1.190  1.00  0.00     0.102 A 
ATOM      5  C   UNL     1      -1.192   6.699   0.931  1.00  0.00     0.130 A 
ATOM      6  C   UNL     1      -0.192   7.670   0.872  1.00  0.00     0.048 A 
ENDROOT
BRANCH   1   7
ATOM      7  C   UNL     1      -2.161  10.778   1.542  1.00  0.00     0.018 A 
ATOM      8  C   UNL     1      -3.259  11.343   0.892  1.00  0.00     0.133 A 
ATOM      9  C   UNL     1      -3.573  12.687   1.097  1.00  0.00     0.079 A 
ATOM     10  C   UNL     1      -1.379  11.555   2.395  1.00  0.00     0.015 A 
ATOM     11  C   UNL     1      -2.791  13.464   1.950  1.00  0.00     0.126 A 
ATOM     12  C   UNL     1      -1.694  12.898   2.599  1.00  0.00     0.040 A 
ATOM     13  F   UNL     1      -4.019  10.610   0.066  1.00  0.00    -0.206 F 
ATOM     14  F   UNL     1      -3.092  14.754   2.146  1.00  0.00    -0.207 F 
ENDBRANCH   1   7
BRANCH   4  15
ATOM     15  C   UNL     1      -3.570   6.072   1.255  1.00  0.00     0.339 C 
ATOM     16  O   UNL     1      -3.531   5.033   1.917  1.00  0.00    -0.246 OA
BRANCH  15  17
ATOM     17  O   UNL     1      -4.645   6.407   0.490  1.00  0.00    -0.478 OA
ATOM     18  H   UNL     1      -4.375   6.765  -0.381  1.00  0.00     0.297 HD
ENDBRANCH  15  17
ENDBRANCH   4  15
BRANCH   5  19
ATOM     19  O   UNL     1      -0.860   5.392   0.731  1.00  0.00    -0.507 OA
ATOM     20  H   UNL     1      -1.627   4.923   0.359  1.00  0.00     0.293 HD
ENDBRANCH   5  19
TORSDOF 4
ENDMDL
MODEL 3
REMARK VINA RESULT:    -6.686      1.151      1.621
REMARK INTER + INTRA:          -8.456
REMARK INTER:                  -7.858
REMARK INTRA:                  -0.598
REMARK UNBOUND:                -0.598
REMARK SMILES O=C(O)c1cc(-c2ccc(F)cc2F)ccc1O
REMARK SMILES IDX 6 1 5 2 15 3 4 4 17 5 16 6 7 7 13 8 12 9 8 10 10 11 9 12
REMARK SMILES IDX 14 13 11 14 2 15 1 16 3 17 18 19
REMARK H PARENT 3 18 18 20
ROOT
ATOM      1  C   UNL     1      -1.867   9.264   1.420  1.00  0.00    -0.014 A 
ATOM      2  C   UNL     1      -0.531   8.925   1.207  1.00  0.00     0.028 A 
ATOM      3  C   UNL     1      -2.839   8.266   1.480  1.00  0.00     0.013 A 
ATOM      4  C   UNL     1      -0.167   7.587   1.055  1.00  0.00     0.102 A 
ATOM      5  C   UNL     1      -1.139   6.589   1.116  1.00  0.00     0.130 A 
ATOM      6  C   UNL     1      -2.476   6.928   1.329  1.00  0.00     0.048 A 
ENDROOT
BRANCH   1   7
ATOM      7  C   UNL     1      -2.246  10.652   1.576  1.00  0.00     0.018 A 
ATOM      8  C   UNL     1      -3.329  11.167   0.862  1.00  0.00     0.133 A 
ATOM      9  C   UNL     1      -3.690  12.506   1.016  1.00  0.00     0.079 A 
ATOM     10  C   UNL     1      -1.527  11.475   2.443  1.00  0.00     0.015 A 
ATOM     11  C   UNL     1      -2.971  13.329   1.882  1.00  0.00     0.126 A 
ATOM     12  C   UNL     1      -1.889  12.812   2.596  1.00  0.00     0.040 A 
ATOM     13  F   UNL     1      -4.029  10.391   0.023  1.00  0.00    -0.206 F 
ATOM     14  F   UNL     1      -3.317  14.614   2.030  1.00  0.00    -0.207 F 
ENDBRANCH   1   7
BRANCH   4  15
ATOM     15  C   UNL     1       1.233   7.253   0.835  1.00  0.00     0.339 C 
ATOM     16  O   UNL     1       1.666   6.569  -0.096  1.00  0.00    -0.246 OA
BRANCH  15  17
ATOM     17  O   UNL     1       2.049   7.786   1.785  1.00  0.00    -0.478 OA
ATOM     18  H   UNL     1       1.593   8.475   2.312  1.00  0.00     0.297 HD
ENDBRANCH  15  17
ENDBRANCH   4  15
BRANCH   5  19
ATOM     19  O   UNL     1      -0.804   5.275   0.971  1.00  0.00    -0.507 OA
ATOM     20  H   UNL     1      -0.041   5.078   1.541  1.00  0.00     0.293 HD
ENDBRANCH   5  19
TORSDOF 4
ENDMDL
MODEL 4
REMARK VINA RESULT:    -6.685      1.216      2.689
REMARK INTER + INTRA:          -8.455
REMARK INTER:                  -7.821
REMARK INTRA:                  -0.634
REMARK UNBOUND:                -0.598
REMARK SMILES O=C(O)c1cc(-c2ccc(F)cc2F)ccc1O
REMARK SMILES IDX 6 1 5 2 15 3 4 4 17 5 16 6 7 7 13 8 12 9 8 10 10 11 9 12
REMARK SMILES IDX 14 13 11 14 2 15 1 16 3 17 18 19
REMARK H PARENT 3 18 18 20
ROOT
ATOM      1  C   UNL     1      -1.806   9.381   1.360  1.00  0.00    -0.014 A 
ATOM      2  C   UNL     1      -2.811   8.416   1.411  1.00  0.00     0.028 A 
ATOM      3  C   UNL     1      -0.490   9.003   1.092  1.00  0.00     0.013 A 
ATOM      4  C   UNL     1      -2.502   7.073   1.195  1.00  0.00     0.102 A 
ATOM      5  C   UNL     1      -1.186   6.695   0.927  1.00  0.00     0.130 A 
ATOM      6  C   UNL     1      -0.180   7.661   0.876  1.00  0.00     0.048 A 
ENDROOT
BRANCH   1   7
ATOM      7  C   UNL     1      -2.126  10.774   1.586  1.00  0.00     0.018 A 
ATOM      8  C   UNL     1      -1.366  11.531   2.478  1.00  0.00     0.133 A 
ATOM      9  C   UNL     1      -1.678  12.874   2.693  1.00  0.00     0.079 A 
ATOM     10  C   UNL     1      -3.195  11.359   0.909  1.00  0.00     0.015 A 
ATOM     11  C   UNL     1      -2.748  13.459   2.016  1.00  0.00     0.126 A 
ATOM     12  C   UNL     1      -3.506  12.701   1.124  1.00  0.00     0.040 A 
ATOM     13  F   UNL     1      -0.336  10.983   3.139  1.00  0.00    -0.206 F 
ATOM     14  F   UNL     1      -3.048  14.748   2.222  1.00  0.00    -0.207 F 
ENDBRANCH   1   7
BRANCH   4  15
ATOM     15  C   UNL     1      -3.567   6.081   1.252  1.00  0.00     0.339 C 
ATOM     16  O   UNL     1      -3.539   5.041   1.914  1.00  0.00    -0.246 OA
BRANCH  15  17
ATOM     17  O   UNL     1      -4.635   6.422   0.480  1.00  0.00    -0.478 OA
ATOM     18  H   UNL     1      -4.745   7.394   0.418  1.00  0.00     0.297 HD
ENDBRANCH  15  17
ENDBRANCH   4  15
BRANCH   5  19
ATOM     19  O   UNL     1      -0.863   5.388   0.712  1.00  0.00    -0.507 OA
ATOM     20  H   UNL     1      -0.818   4.928   1.568  1.00  0.00     0.293 HD
ENDBRANCH   5  19
TORSDOF 4
ENDMDL
MODEL 5
REMARK VINA RESULT:    -5.476      1.676      2.870
REMARK INTER + INTRA:          -7.034
REMARK INTER:                  -6.169
REMARK INTRA:                  -0.865
REMARK UNBOUND:                -0.598
REMARK SMILES O=C(O)c1cc(-c2ccc(F)cc2F)ccc1O
REMARK SMILES IDX 6 1 5 2 15 3 4 4 17 5 16 6 7 7 13 8 12 9 8 10 10 11 9 12
REMARK SMILES IDX 14 13 11 14 2 15 1 16 3 17 18 19
REMARK H PARENT 3 18 18 20
ROOT
ATOM      1  C   UNL     1      -2.028  10.037   1.865  1.00  0.00    -0.014 A 
ATOM      2  C   UNL     1      -2.951   9.033   1.575  1.00  0.00     0.028 A 
ATOM      3  C   UNL     1      -0.680   9.719   2.028  1.00  0.00     0.013 A 
ATOM      4  C   UNL     1      -2.526   7.710   1.446  1.00  0.00     0.102 A 
ATOM      5  C   UNL     1      -1.177   7.393   1.608  1.00  0.00     0.130 A 
ATOM      6  C   UNL     1      -0.254   8.398   1.899  1.00  0.00     0.048 A 
ENDROOT
BRANCH   1   7
ATOM      7  C   UNL     1      -2.469  11.409   2.001  1.00  0.00     0.018 A 
ATOM      8  C   UNL     1      -1.935  12.400   1.177  1.00  0.00     0.133 A 
ATOM      9  C   UNL     1      -2.363  13.722   1.310  1.00  0.00     0.079 A 
ATOM     10  C   UNL     1      -3.430  11.738   2.956  1.00  0.00     0.015 A 
ATOM     11  C   UNL     1      -3.323  14.051   2.266  1.00  0.00     0.126 A 
ATOM     12  C   UNL     1      -3.857  13.059   3.089  1.00  0.00     0.040 A 
ATOM     13  F   UNL     1      -1.009  12.101   0.255  1.00  0.00    -0.206 F 
ATOM     14  F   UNL     1      -3.734  15.319   2.395  1.00  0.00    -0.207 F 
ENDBRANCH   1   7
BRANCH   4  15
ATOM     15  C   UNL     1      -3.505   6.676   1.141  1.00  0.00     0.339 C 
ATOM     16  O   UNL     1      -4.455   6.799   0.364  1.00  0.00    -0.246 OA
BRANCH  15  17
ATOM     17  O   UNL     1      -3.265   5.520   1.817  1.00  0.00    -0.478 OA
ATOM     18  H   UNL     1      -3.789   5.464   2.643  1.00  0.00     0.297 HD
ENDBRANCH  15  17
ENDBRANCH   4  15
BRANCH   5  19
ATOM     19  O   UNL     1      -0.741   6.107   1.485  1.00  0.00    -0.507 OA
ATOM     20  H   UNL     1      -1.196   5.554   2.144  1.00  0.00     0.293 HD
ENDBRANCH   5  19
TORSDOF 4
ENDMDL
MODEL 6
REMARK VINA RESULT:    -5.395      1.161      1.440
REMARK INTER + INTRA:          -6.939
REMARK INTER:                  -6.195
REMARK INTRA:                  -0.743
REMARK UNBOUND:                -0.598
REMARK SMILES O=C(O)c1cc(-c2ccc(F)cc2F)ccc1O
REMARK SMILES IDX 6 1 5 2 15 3 4 4 17 5 16 6 7 7 13 8 12 9 8 10 10 11 9 12
REMARK SMILES IDX 14 13 11 14 2 15 1 16 3 17 18 19
REMARK H PARENT 3 18 18 20
ROOT
ATOM      1  C   UNL     1      -2.073   9.821   1.365  1.00  0.00    -0.014 A 
ATOM      2  C   UNL     1      -0.736   9.429   1.347  1.00  0.00     0.028 A 
ATOM      3  C   UNL     1      -3.078   8.884   1.124  1.00  0.00     0.013 A 
ATOM      4  C   UNL     1      -0.402   8.099   1.088  1.00  0.00     0.102 A 
ATOM      5  C   UNL     1      -1.406   7.162   0.847  1.00  0.00     0.130 A 
ATOM      6  C   UNL     1      -2.745   7.555   0.865  1.00  0.00     0.048 A 
ENDROOT
BRANCH   1   7
ATOM      7  C   UNL     1      -2.421  11.200   1.632  1.00  0.00     0.018 A 
ATOM      8  C   UNL     1      -1.782  12.230   0.940  1.00  0.00     0.133 A 
ATOM      9  C   UNL     1      -2.120  13.558   1.201  1.00  0.00     0.079 A 
ATOM     10  C   UNL     1      -3.396  11.498   2.583  1.00  0.00     0.015 A 
ATOM     11  C   UNL     1      -3.095  13.856   2.153  1.00  0.00     0.126 A 
ATOM     12  C   UNL     1      -3.733  12.826   2.844  1.00  0.00     0.040 A 
ATOM     13  F   UNL     1      -0.841  11.960   0.025  1.00  0.00    -0.206 F 
ATOM     14  F   UNL     1      -3.419  15.131   2.404  1.00  0.00    -0.207 F 
ENDBRANCH   1   7
BRANCH   4  15
ATOM     15  C   UNL     1       1.002   7.709   1.074  1.00  0.00     0.339 C 
ATOM     16  O   UNL     1       1.864   8.120   1.854  1.00  0.00    -0.246 OA
BRANCH  15  17
ATOM     17  O   UNL     1       1.282   6.817   0.085  1.00  0.00    -0.478 OA
ATOM     18  H   UNL     1       1.625   7.260  -0.719  1.00  0.00     0.297 HD
ENDBRANCH  15  17
ENDBRANCH   4  15
BRANCH   5  19
ATOM     19  O   UNL     1      -1.101   5.858   0.592  1.00  0.00    -0.507 OA
ATOM     20  H   UNL     1      -0.139   5.737   0.668  1.00  0.00     0.293 HD
ENDBRANCH   5  19
TORSDOF 4
ENDMDL
MODEL 7
REMARK VINA RESULT:    -5.242      4.388      6.675
REMARK INTER + INTRA:          -6.759
REMARK INTER:                  -5.671
REMARK INTRA:                  -1.088
REMARK UNBOUND:                -0.598
REMARK SMILES O=C(O)c1cc(-c2ccc(F)cc2F)ccc1O
REMARK SMILES IDX 6 1 5 2 15 3 4 4 17 5 16 6 7 7 13 8 12 9 8 10 10 11 9 12
REMARK SMILES IDX 14 13 11 14 2 15 1 16 3 17 18 19
REMARK H PARENT 3 18 18 20
ROOT
ATOM      1  C   UNL     1      -2.361  11.855   1.803  1.00  0.00    -0.014 A 
ATOM      2  C   UNL     1      -3.379  12.100   2.724  1.00  0.00     0.028 A 
ATOM      3  C   UNL     1      -1.792  12.913   1.095  1.00  0.00     0.013 A 
ATOM      4  C   UNL     1      -3.828  13.403   2.938  1.00  0.00     0.102 A 
ATOM      5  C   UNL     1      -3.258  14.462   2.230  1.00  0.00     0.130 A 
ATOM      6  C   UNL     1      -2.240  14.217   1.308  1.00  0.00     0.048 A 
ENDROOT
BRANCH   1   7
ATOM      7  C   UNL     1      -1.896  10.503   1.579  1.00  0.00     0.018 A 
ATOM      8  C   UNL     1      -0.823  10.001   2.315  1.00  0.00     0.133 A 
ATOM      9  C   UNL     1      -0.377   8.697   2.096  1.00  0.00     0.079 A 
ATOM     10  C   UNL     1      -2.524   9.702   0.626  1.00  0.00     0.015 A 
ATOM     11  C   UNL     1      -1.005   7.896   1.143  1.00  0.00     0.126 A 
ATOM     12  C   UNL     1      -2.079   8.399   0.408  1.00  0.00     0.040 A 
ATOM     13  F   UNL     1      -0.206  10.759   3.233  1.00  0.00    -0.206 F 
ATOM     14  F   UNL     1      -0.578   6.644   0.932  1.00  0.00    -0.207 F 
ENDBRANCH   1   7
BRANCH   4  15
ATOM     15  C   UNL     1      -4.891  13.638   3.905  1.00  0.00     0.339 C 
ATOM     16  O   UNL     1      -5.010  13.062   4.989  1.00  0.00    -0.246 OA
BRANCH  15  17
ATOM     17  O   UNL     1      -5.772  14.587   3.486  1.00  0.00    -0.478 OA
ATOM     18  H   UNL     1      -5.317  15.353   3.078  1.00  0.00     0.297 HD
ENDBRANCH  15  17
ENDBRANCH   4  15
BRANCH   5  19
ATOM     19  O   UNL     1      -3.682  15.743   2.426  1.00  0.00    -0.507 OA
ATOM     20  H   UNL     1      -3.292  16.084   3.249  1.00  0.00     0.293 HD
ENDBRANCH   5  19
TORSDOF 4
ENDMDL
MODEL 8
REMARK VINA RESULT:    -5.239      4.062      6.292
REMARK INTER + INTRA:          -6.756
REMARK INTER:                  -5.683
REMARK INTRA:                  -1.072
REMARK UNBOUND:                -0.598
REMARK SMILES O=C(O)c1cc(-c2ccc(F)cc2F)ccc1O
REMARK SMILES IDX 6 1 5 2 15 3 4 4 17 5 16 6 7 7 13 8 12 9 8 10 10 11 9 12
REMARK SMILES IDX 14 13 11 14 2 15 1 16 3 17 18 19
REMARK H PARENT 3 18 18 20
ROOT
ATOM      1  C   UNL     1      -2.418  11.881   1.744  1.00  0.00    -0.014 A 
ATOM      2  C   UNL     1      -1.739  12.875   1.041  1.00  0.00     0.028 A 
ATOM      3  C   UNL     1      -3.446  12.227   2.621  1.00  0.00     0.013 A 
ATOM      4  C   UNL     1      -2.087  14.215   1.213  1.00  0.00     0.102 A 
ATOM      5  C   UNL     1      -3.116  14.560   2.090  1.00  0.00     0.130 A 
ATOM      6  C   UNL     1      -3.796  13.566   2.794  1.00  0.00     0.048 A 
ENDROOT
BRANCH   1   7
ATOM      7  C   UNL     1      -2.056  10.492   1.567  1.00  0.00     0.018 A 
ATOM      8  C   UNL     1      -0.994   9.947   2.289  1.00  0.00     0.133 A 
ATOM      9  C   UNL     1      -0.649   8.606   2.115  1.00  0.00     0.079 A 
ATOM     10  C   UNL     1      -2.773   9.697   0.673  1.00  0.00     0.015 A 
ATOM     11  C   UNL     1      -1.364   7.812   1.220  1.00  0.00     0.126 A 
ATOM     12  C   UNL     1      -2.427   8.357   0.499  1.00  0.00     0.040 A 
ATOM     13  F   UNL     1      -0.294  10.698   3.151  1.00  0.00    -0.206 F 
ATOM     14  F   UNL     1      -1.033   6.525   1.052  1.00  0.00    -0.207 F 
ENDBRANCH   1   7
BRANCH   4  15
ATOM     15  C   UNL     1      -1.366  15.238   0.468  1.00  0.00     0.339 C 
ATOM     16  O   UNL     1      -1.436  16.452   0.673  1.00  0.00    -0.246 OA
BRANCH  15  17
ATOM     17  O   UNL     1      -0.578  14.709  -0.508  1.00  0.00    -0.478 OA
ATOM     18  H   UNL     1       0.328  14.523  -0.184  1.00  0.00     0.297 HD
ENDBRANCH  15  17
ENDBRANCH   4  15
BRANCH   5  19
ATOM     19  O   UNL     1      -3.472  15.863   2.272  1.00  0.00    -0.507 OA
ATOM     20  H   UNL     1      -3.113  16.396   1.541  1.00  0.00     0.293 HD
ENDBRANCH   5  19
TORSDOF 4
ENDMDL
MODEL 9
REMARK VINA RESULT:    -5.066      8.895     11.334
REMARK INTER + INTRA:          -6.553
REMARK INTER:                  -5.500
REMARK INTRA:                  -1.053
REMARK UNBOUND:                -0.598
REMARK SMILES O=C(O)c1cc(-c2ccc(F)cc2F)ccc1O
REMARK SMILES IDX 6 1 5 2 15 3 4 4 17 5 16 6 7 7 13 8 12 9 8 10 10 11 9 12
REMARK SMILES IDX 14 13 11 14 2 15 1 16 3 17 18 19
REMARK H PARENT 3 18 18 20
ROOT
ATOM      1  C   UNL     1      -5.932  15.838   7.327  1.00  0.00    -0.014 A 
ATOM      2  C   UNL     1      -7.229  15.780   7.835  1.00  0.00     0.028 A 
ATOM      3  C   UNL     1      -4.930  16.492   8.045  1.00  0.00     0.013 A 
ATOM      4  C   UNL     1      -7.526  16.376   9.061  1.00  0.00     0.102 A 
ATOM      5  C   UNL     1      -6.525  17.030   9.778  1.00  0.00     0.130 A 
ATOM      6  C   UNL     1      -5.226  17.088   9.270  1.00  0.00     0.048 A 
ENDROOT
BRANCH   1   7
ATOM      7  C   UNL     1      -5.623  15.220   6.055  1.00  0.00     0.018 A 
ATOM      8  C   UNL     1      -5.894  15.897   4.865  1.00  0.00     0.133 A 
ATOM      9  C   UNL     1      -5.595  15.298   3.641  1.00  0.00     0.079 A 
ATOM     10  C   UNL     1      -5.054  13.948   6.021  1.00  0.00     0.015 A 
ATOM     11  C   UNL     1      -5.027  14.025   3.607  1.00  0.00     0.126 A 
ATOM     12  C   UNL     1      -4.756  13.350   4.797  1.00  0.00     0.040 A 
ATOM     13  F   UNL     1      -6.443  17.119   4.880  1.00  0.00    -0.206 F 
ATOM     14  F   UNL     1      -4.740  13.449   2.432  1.00  0.00    -0.207 F 
ENDBRANCH   1   7
BRANCH   4  15
ATOM     15  C   UNL     1      -8.887  16.305   9.574  1.00  0.00     0.339 C 
ATOM     16  O   UNL     1      -9.412  17.132  10.324  1.00  0.00    -0.246 OA
BRANCH  15  17
ATOM     17  O   UNL     1      -9.550  15.201   9.132  1.00  0.00    -0.478 OA
ATOM     18  H   UNL     1     -10.455  15.146   9.505  1.00  0.00     0.297 HD
ENDBRANCH  15  17
ENDBRANCH   4  15
BRANCH   5  19
ATOM     19  O   UNL     1      -6.794  17.619  10.978  1.00  0.00    -0.507 OA
ATOM     20  H   UNL     1      -6.404  17.081  11.690  1.00  0.00     0.293 HD
ENDBRANCH   5  19
TORSDOF 4
ENDMDL
