MODEL 1
REMARK VINA RESULT:    -5.325      0.000      0.000
REMARK INTER + INTRA:          -7.429
REMARK INTER:                  -6.570
REMARK INTRA:                  -0.859
REMARK UNBOUND:                -0.859
REMARK SMILES Cc1ccc(C(=O)c2cc(O)c(O)c([N+](=O)[O-])c2)cc1
REMARK SMILES IDX 8 1 18 2 9 3 14 4 10 5 12 6 6 7 7 8 5 9 4 10 19 11 3 12
REMARK SMILES IDX 20 13 2 14 1 15 15 16 17 17 16 18 11 19 13 21
REMARK H PARENT 11 20 13 22
ROOT
ATOM      1  C   UNL     1      -1.276   9.348   0.641  1.00  0.00     0.033 A 
ATOM      2  C   UNL     1      -2.418   8.597   0.795  1.00  0.00     0.102 A 
ATOM      3  C   UNL     1      -0.017   8.796   0.630  1.00  0.00     0.063 A 
ATOM      4  C   UNL     1      -2.294   7.216   0.944  1.00  0.00     0.315 A 
ATOM      5  C   UNL     1       0.108   7.415   0.780  1.00  0.00     0.165 A 
ATOM      6  C   UNL     1      -1.031   6.624   0.937  1.00  0.00     0.237 A 
ENDROOT
BRANCH   1   7
ATOM      7  C   UNL     1      -1.409  10.827   0.482  1.00  0.00     0.193 C 
ATOM      8  O   UNL     1      -0.745  11.364  -0.419  1.00  0.00    -0.289 OA
BRANCH   7   9
ATOM      9  C   UNL     1      -2.273  11.629   1.333  1.00  0.00     0.023 A 
ATOM     10  C   UNL     1      -1.779  12.164   2.522  1.00  0.00     0.012 A 
ATOM     11  C   UNL     1      -3.596  11.863   0.960  1.00  0.00     0.012 A 
ATOM     12  C   UNL     1      -2.608  12.933   3.338  1.00  0.00     0.004 A 
ATOM     13  C   UNL     1      -4.427  12.632   1.776  1.00  0.00     0.004 A 
ATOM     14  C   UNL     1      -3.932  13.168   2.965  1.00  0.00    -0.051 A 
ATOM     15  C   UNL     1      -4.819  13.989   3.838  1.00  0.00     0.044 C 
ENDBRANCH   7   9
ENDBRANCH   1   7
BRANCH   4  16
ATOM     16  N   UNL     1      -3.466   6.427   1.103  1.00  0.00     0.066 N 
ATOM     17  O   UNL     1      -4.505   6.753   0.481  1.00  0.00    -0.258 OA
ATOM     18  O   UNL     1      -3.427   5.429   1.860  1.00  0.00    -0.258 OA
ENDBRANCH   4  16
BRANCH   5  19
ATOM     19  O   UNL     1       1.348   6.850   0.770  1.00  0.00    -0.504 OA
ATOM     20  H   UNL     1       1.594   6.589   1.673  1.00  0.00     0.293 HD
ENDBRANCH   5  19
BRANCH   6  21
ATOM     21  O   UNL     1      -0.897   5.274   1.082  1.00  0.00    -0.500 OA
ATOM     22  H   UNL     1       0.005   5.008   0.841  1.00  0.00     0.294 HD
ENDBRANCH   6  21
TORSDOF 5
ENDMDL
MODEL 2
REMARK VINA RESULT:    -5.303      2.035      3.349
REMARK INTER + INTRA:          -7.402
REMARK INTER:                  -6.595
REMARK INTRA:                  -0.807
REMARK UNBOUND:                -0.859
REMARK SMILES Cc1ccc(C(=O)c2cc(O)c(O)c([N+](=O)[O-])c2)cc1
REMARK SMILES IDX 8 1 18 2 9 3 14 4 10 5 12 6 6 7 7 8 5 9 4 10 19 11 3 12
REMARK SMILES IDX 20 13 2 14 1 15 15 16 17 17 16 18 11 19 13 21
REMARK H PARENT 11 20 13 22
ROOT
ATOM      1  C   UNL     1      -2.285   8.873   2.122  1.00  0.00     0.033 A 
ATOM      2  C   UNL     1      -0.958   8.849   1.759  1.00  0.00     0.102 A 
ATOM      3  C   UNL     1      -3.101   7.771   2.039  1.00  0.00     0.063 A 
ATOM      4  C   UNL     1      -0.418   7.652   1.287  1.00  0.00     0.315 A 
ATOM      5  C   UNL     1      -2.561   6.574   1.567  1.00  0.00     0.165 A 
ATOM      6  C   UNL     1      -1.219   6.515   1.192  1.00  0.00     0.237 A 
ENDROOT
BRANCH   1   7
ATOM      7  C   UNL     1      -2.864  10.155   2.626  1.00  0.00     0.193 C 
ATOM      8  O   UNL     1      -3.673  10.083   3.564  1.00  0.00    -0.289 OA
BRANCH   7   9
ATOM      9  C   UNL     1      -2.510  11.447   2.060  1.00  0.00     0.023 A 
ATOM     10  C   UNL     1      -1.402  12.142   2.546  1.00  0.00     0.012 A 
ATOM     11  C   UNL     1      -3.278  11.991   1.031  1.00  0.00     0.012 A 
ATOM     12  C   UNL     1      -1.063  13.381   2.003  1.00  0.00     0.004 A 
ATOM     13  C   UNL     1      -2.939  13.230   0.486  1.00  0.00     0.004 A 
ATOM     14  C   UNL     1      -1.831  13.925   0.973  1.00  0.00    -0.051 A 
ATOM     15  C   UNL     1      -1.469  15.250   0.393  1.00  0.00     0.044 C 
ENDBRANCH   7   9
ENDBRANCH   1   7
BRANCH   4  16
ATOM     16  N   UNL     1       0.952   7.611   0.909  1.00  0.00     0.066 N 
ATOM     17  O   UNL     1       1.764   8.373   1.488  1.00  0.00    -0.258 OA
ATOM     18  O   UNL     1       1.309   6.815   0.009  1.00  0.00    -0.258 OA
ENDBRANCH   4  16
BRANCH   5  19
ATOM     19  O   UNL     1      -3.356   5.471   1.479  1.00  0.00    -0.504 OA
ATOM     20  H   UNL     1      -2.898   4.780   0.972  1.00  0.00     0.293 HD
ENDBRANCH   5  19
BRANCH   6  21
ATOM     21  O   UNL     1      -0.702   5.338   0.732  1.00  0.00    -0.500 OA
ATOM     22  H   UNL     1      -1.232   5.019  -0.015  1.00  0.00     0.294 HD
ENDBRANCH   6  21
TORSDOF 5
ENDMDL
MODEL 3
REMARK VINA RESULT:    -4.980      1.671      2.955
REMARK INTER + INTRA:          -7.004
REMARK INTER:                  -6.441
REMARK INTRA:                  -0.563
REMARK UNBOUND:                -0.859
REMARK SMILES Cc1ccc(C(=O)c2cc(O)c(O)c([N+](=O)[O-])c2)cc1
REMARK SMILES IDX 8 1 18 2 9 3 14 4 10 5 12 6 6 7 7 8 5 9 4 10 19 11 3 12
REMARK SMILES IDX 20 13 2 14 1 15 15 16 17 17 16 18 11 19 13 21
REMARK H PARENT 11 20 13 22
ROOT
ATOM      1  C   UNL     1      -2.582   8.399   0.388  1.00  0.00     0.033 A 
ATOM      2  C   UNL     1      -1.213   8.401   0.248  1.00  0.00     0.102 A 
ATOM      3  C   UNL     1      -3.276   7.338   0.918  1.00  0.00     0.063 A 
ATOM      4  C   UNL     1      -0.499   7.278   0.664  1.00  0.00     0.315 A 
ATOM      5  C   UNL     1      -2.562   6.214   1.333  1.00  0.00     0.165 A 
ATOM      6  C   UNL     1      -1.173   6.184   1.207  1.00  0.00     0.237 A 
ENDROOT
BRANCH   1   7
ATOM      7  C   UNL     1      -3.347   9.602  -0.058  1.00  0.00     0.193 C 
ATOM      8  O   UNL     1      -3.950   9.525  -1.139  1.00  0.00    -0.289 OA
BRANCH   7   9
ATOM      9  C   UNL     1      -3.400  10.827   0.725  1.00  0.00     0.023 A 
ATOM     10  C   UNL     1      -2.374  11.126   1.622  1.00  0.00     0.012 A 
ATOM     11  C   UNL     1      -4.475  11.702   0.579  1.00  0.00     0.012 A 
ATOM     12  C   UNL     1      -2.424  12.301   2.372  1.00  0.00     0.004 A 
ATOM     13  C   UNL     1      -4.526  12.878   1.329  1.00  0.00     0.004 A 
ATOM     14  C   UNL     1      -3.500  13.177   2.226  1.00  0.00    -0.051 A 
ATOM     15  C   UNL     1      -3.555  14.432   3.029  1.00  0.00     0.044 C 
ENDBRANCH   7   9
ENDBRANCH   1   7
BRANCH   4  16
ATOM     16  N   UNL     1       0.916   7.265   0.527  1.00  0.00     0.066 N 
ATOM     17  O   UNL     1       1.448   6.388  -0.196  1.00  0.00    -0.258 OA
ATOM     18  O   UNL     1       1.591   8.131   1.131  1.00  0.00    -0.258 OA
ENDBRANCH   4  16
BRANCH   5  19
ATOM     19  O   UNL     1      -3.234   5.153   1.862  1.00  0.00    -0.504 OA
ATOM     20  H   UNL     1      -3.850   5.465   2.545  1.00  0.00     0.293 HD
ENDBRANCH   5  19
BRANCH   6  21
ATOM     21  O   UNL     1      -0.485   5.079   1.617  1.00  0.00    -0.500 OA
ATOM     22  H   UNL     1       0.260   5.348   2.178  1.00  0.00     0.294 HD
ENDBRANCH   6  21
TORSDOF 5
ENDMDL
MODEL 4
REMARK VINA RESULT:    -4.960      1.766      2.277
REMARK INTER + INTRA:          -6.979
REMARK INTER:                  -6.404
REMARK INTRA:                  -0.574
REMARK UNBOUND:                -0.859
REMARK SMILES Cc1ccc(C(=O)c2cc(O)c(O)c([N+](=O)[O-])c2)cc1
REMARK SMILES IDX 8 1 18 2 9 3 14 4 10 5 12 6 6 7 7 8 5 9 4 10 19 11 3 12
REMARK SMILES IDX 20 13 2 14 1 15 15 16 17 17 16 18 11 19 13 21
REMARK H PARENT 11 20 13 22
ROOT
ATOM      1  C   UNL     1      -0.651   8.656   2.206  1.00  0.00     0.033 A 
ATOM      2  C   UNL     1      -1.847   7.978   2.258  1.00  0.00     0.102 A 
ATOM      3  C   UNL     1       0.424   8.218   1.470  1.00  0.00     0.063 A 
ATOM      4  C   UNL     1      -1.975   6.795   1.530  1.00  0.00     0.315 A 
ATOM      5  C   UNL     1       0.297   7.034   0.743  1.00  0.00     0.165 A 
ATOM      6  C   UNL     1      -0.903   6.323   0.772  1.00  0.00     0.237 A 
ENDROOT
BRANCH   1   7
ATOM      7  C   UNL     1      -0.515   9.923   2.986  1.00  0.00     0.193 C 
ATOM      8  O   UNL     1       0.120   9.871   4.050  1.00  0.00    -0.289 OA
BRANCH   7   9
ATOM      9  C   UNL     1      -1.092  11.180   2.538  1.00  0.00     0.023 A 
ATOM     10  C   UNL     1      -2.214  11.176   1.709  1.00  0.00     0.012 A 
ATOM     11  C   UNL     1      -0.524  12.390   2.937  1.00  0.00     0.012 A 
ATOM     12  C   UNL     1      -2.768  12.382   1.280  1.00  0.00     0.004 A 
ATOM     13  C   UNL     1      -1.078  13.597   2.508  1.00  0.00     0.004 A 
ATOM     14  C   UNL     1      -2.201  13.593   1.679  1.00  0.00    -0.051 A 
ATOM     15  C   UNL     1      -2.792  14.881   1.219  1.00  0.00     0.044 C 
ENDBRANCH   7   9
ENDBRANCH   1   7
BRANCH   4  16
ATOM     16  N   UNL     1      -3.205   6.083   1.573  1.00  0.00     0.066 N 
ATOM     17  O   UNL     1      -3.206   4.899   1.989  1.00  0.00    -0.258 OA
ATOM     18  O   UNL     1      -4.251   6.659   1.194  1.00  0.00    -0.258 OA
ENDBRANCH   4  16
BRANCH   5  19
ATOM     19  O   UNL     1       1.352   6.586   0.007  1.00  0.00    -0.504 OA
ATOM     20  H   UNL     1       1.306   6.958  -0.889  1.00  0.00     0.293 HD
ENDBRANCH   5  19
BRANCH   6  21
ATOM     21  O   UNL     1      -1.015   5.166   0.056  1.00  0.00    -0.500 OA
ATOM     22  H   UNL     1      -1.865   4.742   0.254  1.00  0.00     0.294 HD
ENDBRANCH   6  21
TORSDOF 5
ENDMDL
MODEL 5
REMARK VINA RESULT:    -4.700      4.045      7.290
REMARK INTER + INTRA:          -6.658
REMARK INTER:                  -5.977
REMARK INTRA:                  -0.681
REMARK UNBOUND:                -0.859
REMARK SMILES Cc1ccc(C(=O)c2cc(O)c(O)c([N+](=O)[O-])c2)cc1
REMARK SMILES IDX 8 1 18 2 9 3 14 4 10 5 12 6 6 7 7 8 5 9 4 10 19 11 3 12
REMARK SMILES IDX 20 13 2 14 1 15 15 16 17 17 16 18 11 19 13 21
REMARK H PARENT 11 20 13 22
ROOT
ATOM      1  C   UNL     1      -2.892  12.806   1.964  1.00  0.00     0.033 A 
ATOM      2  C   UNL     1      -2.609  14.110   1.633  1.00  0.00     0.102 A 
ATOM      3  C   UNL     1      -3.845  12.461   2.893  1.00  0.00     0.063 A 
ATOM      4  C   UNL     1      -3.321  15.129   2.267  1.00  0.00     0.315 A 
ATOM      5  C   UNL     1      -4.557  13.479   3.528  1.00  0.00     0.165 A 
ATOM      6  C   UNL     1      -4.295  14.814   3.214  1.00  0.00     0.237 A 
ENDROOT
BRANCH   1   7
ATOM      7  C   UNL     1      -2.129  11.715   1.286  1.00  0.00     0.193 C 
ATOM      8  O   UNL     1      -1.061  12.024   0.737  1.00  0.00    -0.289 OA
BRANCH   7   9
ATOM      9  C   UNL     1      -2.596  10.338   1.256  1.00  0.00     0.023 A 
ATOM     10  C   UNL     1      -3.358   9.883   0.179  1.00  0.00     0.012 A 
ATOM     11  C   UNL     1      -2.284   9.473   2.304  1.00  0.00     0.012 A 
ATOM     12  C   UNL     1      -3.806   8.563   0.151  1.00  0.00     0.004 A 
ATOM     13  C   UNL     1      -2.732   8.151   2.276  1.00  0.00     0.004 A 
ATOM     14  C   UNL     1      -3.493   7.696   1.199  1.00  0.00    -0.051 A 
ATOM     15  C   UNL     1      -3.973   6.285   1.169  1.00  0.00     0.044 C 
ENDBRANCH   7   9
ENDBRANCH   1   7
BRANCH   4  16
ATOM     16  N   UNL     1      -3.041  16.482   1.935  1.00  0.00     0.066 N 
ATOM     17  O   UNL     1      -2.420  16.730   0.873  1.00  0.00    -0.258 OA
ATOM     18  O   UNL     1      -3.422  17.388   2.712  1.00  0.00    -0.258 OA
ENDBRANCH   4  16
BRANCH   5  19
ATOM     19  O   UNL     1      -5.506  13.156   4.451  1.00  0.00    -0.504 OA
ATOM     20  H   UNL     1      -5.082  12.990   5.309  1.00  0.00     0.293 HD
ENDBRANCH   5  19
BRANCH   6  21
ATOM     21  O   UNL     1      -4.999  15.801   3.841  1.00  0.00    -0.500 OA
ATOM     22  H   UNL     1      -4.532  16.073   4.647  1.00  0.00     0.294 HD
ENDBRANCH   6  21
TORSDOF 5
ENDMDL
MODEL 6
REMARK VINA RESULT:    -4.692      3.766      6.688
REMARK INTER + INTRA:          -6.648
REMARK INTER:                  -5.710
REMARK INTRA:                  -0.938
REMARK UNBOUND:                -0.859
REMARK SMILES Cc1ccc(C(=O)c2cc(O)c(O)c([N+](=O)[O-])c2)cc1
REMARK SMILES IDX 8 1 18 2 9 3 14 4 10 5 12 6 6 7 7 8 5 9 4 10 19 11 3 12
REMARK SMILES IDX 20 13 2 14 1 15 15 16 17 17 16 18 11 19 13 21
REMARK H PARENT 11 20 13 22
ROOT
ATOM      1  C   UNL     1      -1.839  12.578   2.192  1.00  0.00     0.033 A 
ATOM      2  C   UNL     1      -2.981  12.951   2.862  1.00  0.00     0.102 A 
ATOM      3  C   UNL     1      -1.175  13.412   1.325  1.00  0.00     0.063 A 
ATOM      4  C   UNL     1      -3.487  14.234   2.653  1.00  0.00     0.315 A 
ATOM      5  C   UNL     1      -1.682  14.695   1.115  1.00  0.00     0.165 A 
ATOM      6  C   UNL     1      -2.838  15.107   1.779  1.00  0.00     0.237 A 
ENDROOT
BRANCH   1   7
ATOM      7  C   UNL     1      -1.297  11.203   2.416  1.00  0.00     0.193 C 
ATOM      8  O   UNL     1      -0.188  11.112   2.963  1.00  0.00    -0.289 OA
BRANCH   7   9
ATOM      9  C   UNL     1      -2.020  10.006   2.019  1.00  0.00     0.023 A 
ATOM     10  C   UNL     1      -2.721   9.982   0.813  1.00  0.00     0.012 A 
ATOM     11  C   UNL     1      -2.012   8.881   2.843  1.00  0.00     0.012 A 
ATOM     12  C   UNL     1      -3.414   8.833   0.433  1.00  0.00     0.004 A 
ATOM     13  C   UNL     1      -2.705   7.731   2.463  1.00  0.00     0.004 A 
ATOM     14  C   UNL     1      -3.406   7.707   1.257  1.00  0.00    -0.051 A 
ATOM     15  C   UNL     1      -4.148   6.480   0.850  1.00  0.00     0.044 C 
ENDBRANCH   7   9
ENDBRANCH   1   7
BRANCH   4  16
ATOM     16  N   UNL     1      -4.667  14.635   3.338  1.00  0.00     0.066 N 
ATOM     17  O   UNL     1      -4.782  15.832   3.698  1.00  0.00    -0.258 OA
ATOM     18  O   UNL     1      -5.557  13.782   3.562  1.00  0.00    -0.258 OA
ENDBRANCH   4  16
BRANCH   5  19
ATOM     19  O   UNL     1      -1.037  15.537   0.260  1.00  0.00    -0.504 OA
ATOM     20  H   UNL     1      -1.667  16.185  -0.097  1.00  0.00     0.293 HD
ENDBRANCH   5  19
BRANCH   6  21
ATOM     21  O   UNL     1      -3.323  16.364   1.566  1.00  0.00    -0.500 OA
ATOM     22  H   UNL     1      -2.634  16.916   1.165  1.00  0.00     0.294 HD
ENDBRANCH   6  21
TORSDOF 5
ENDMDL
MODEL 7
REMARK VINA RESULT:    -4.686      3.667      7.225
REMARK INTER + INTRA:          -6.640
REMARK INTER:                  -5.692
REMARK INTRA:                  -0.948
REMARK UNBOUND:                -0.859
REMARK SMILES Cc1ccc(C(=O)c2cc(O)c(O)c([N+](=O)[O-])c2)cc1
REMARK SMILES IDX 8 1 18 2 9 3 14 4 10 5 12 6 6 7 7 8 5 9 4 10 19 11 3 12
REMARK SMILES IDX 20 13 2 14 1 15 15 16 17 17 16 18 11 19 13 21
REMARK H PARENT 11 20 13 22
ROOT
ATOM      1  C   UNL     1      -3.355  12.310   1.447  1.00  0.00     0.033 A 
ATOM      2  C   UNL     1      -2.562  13.319   0.951  1.00  0.00     0.102 A 
ATOM      3  C   UNL     1      -4.271  12.506   2.453  1.00  0.00     0.063 A 
ATOM      4  C   UNL     1      -2.695  14.598   1.492  1.00  0.00     0.315 A 
ATOM      5  C   UNL     1      -4.403  13.785   2.995  1.00  0.00     0.165 A 
ATOM      6  C   UNL     1      -3.614  14.832   2.513  1.00  0.00     0.237 A 
ENDROOT
BRANCH   1   7
ATOM      7  C   UNL     1      -3.213  10.940   0.867  1.00  0.00     0.193 C 
ATOM      8  O   UNL     1      -4.190  10.476   0.260  1.00  0.00    -0.289 OA
BRANCH   7   9
ATOM      9  C   UNL     1      -1.992  10.162   0.996  1.00  0.00     0.023 A 
ATOM     10  C   UNL     1      -1.517   9.426  -0.090  1.00  0.00     0.012 A 
ATOM     11  C   UNL     1      -1.295  10.151   2.204  1.00  0.00     0.012 A 
ATOM     12  C   UNL     1      -0.345   8.679   0.033  1.00  0.00     0.004 A 
ATOM     13  C   UNL     1      -0.123   9.405   2.327  1.00  0.00     0.004 A 
ATOM     14  C   UNL     1       0.353   8.669   1.242  1.00  0.00    -0.051 A 
ATOM     15  C   UNL     1       1.604   7.870   1.373  1.00  0.00     0.044 C 
ENDBRANCH   7   9
ENDBRANCH   1   7
BRANCH   4  16
ATOM     16  N   UNL     1      -1.882  15.651   0.989  1.00  0.00     0.066 N 
ATOM     17  O   UNL     1      -0.709  15.392   0.627  1.00  0.00    -0.258 OA
ATOM     18  O   UNL     1      -2.363  16.807   0.921  1.00  0.00    -0.258 OA
ENDBRANCH   4  16
BRANCH   5  19
ATOM     19  O   UNL     1      -5.306  13.999   3.992  1.00  0.00    -0.504 OA
ATOM     20  H   UNL     1      -4.847  14.016   4.848  1.00  0.00     0.293 HD
ENDBRANCH   5  19
BRANCH   6  21
ATOM     21  O   UNL     1      -3.753  16.078   3.051  1.00  0.00    -0.500 OA
ATOM     22  H   UNL     1      -3.232  16.141   3.867  1.00  0.00     0.294 HD
ENDBRANCH   6  21
TORSDOF 5
ENDMDL
MODEL 8
REMARK VINA RESULT:    -4.545      1.275      2.896
REMARK INTER + INTRA:          -6.466
REMARK INTER:                  -5.730
REMARK INTRA:                  -0.736
REMARK UNBOUND:                -0.859
REMARK SMILES Cc1ccc(C(=O)c2cc(O)c(O)c([N+](=O)[O-])c2)cc1
REMARK SMILES IDX 8 1 18 2 9 3 14 4 10 5 12 6 6 7 7 8 5 9 4 10 19 11 3 12
REMARK SMILES IDX 20 13 2 14 1 15 15 16 17 17 16 18 11 19 13 21
REMARK H PARENT 11 20 13 22
ROOT
ATOM      1  C   UNL     1      -1.578   9.843   0.779  1.00  0.00     0.033 A 
ATOM      2  C   UNL     1      -0.325   9.277   0.790  1.00  0.00     0.102 A 
ATOM      3  C   UNL     1      -2.734   9.099   0.788  1.00  0.00     0.063 A 
ATOM      4  C   UNL     1      -0.222   7.886   0.813  1.00  0.00     0.315 A 
ATOM      5  C   UNL     1      -2.631   7.708   0.810  1.00  0.00     0.165 A 
ATOM      6  C   UNL     1      -1.375   7.101   0.823  1.00  0.00     0.237 A 
ENDROOT
BRANCH   1   7
ATOM      7  C   UNL     1      -1.689  11.333   0.754  1.00  0.00     0.193 C 
ATOM      8  O   UNL     1      -0.980  11.943  -0.061  1.00  0.00    -0.289 OA
BRANCH   7   9
ATOM      9  C   UNL     1      -2.584  12.063   1.637  1.00  0.00     0.023 A 
ATOM     10  C   UNL     1      -3.910  12.280   1.263  1.00  0.00     0.012 A 
ATOM     11  C   UNL     1      -2.117  12.547   2.859  1.00  0.00     0.012 A 
ATOM     12  C   UNL     1      -4.768  12.980   2.111  1.00  0.00     0.004 A 
ATOM     13  C   UNL     1      -2.975  13.248   3.708  1.00  0.00     0.004 A 
ATOM     14  C   UNL     1      -4.301  13.464   3.333  1.00  0.00    -0.051 A 
ATOM     15  C   UNL     1      -5.219  14.214   4.238  1.00  0.00     0.044 C 
ENDBRANCH   7   9
ENDBRANCH   1   7
BRANCH   4  16
ATOM     16  N   UNL     1       1.067   7.286   0.825  1.00  0.00     0.066 N 
ATOM     17  O   UNL     1       1.375   6.493  -0.097  1.00  0.00    -0.258 OA
ATOM     18  O   UNL     1       1.857   7.567   1.756  1.00  0.00    -0.258 OA
ENDBRANCH   4  16
BRANCH   5  19
ATOM     19  O   UNL     1      -3.766   6.954   0.820  1.00  0.00    -0.504 OA
ATOM     20  H   UNL     1      -4.544   7.536   0.826  1.00  0.00     0.293 HD
ENDBRANCH   5  19
BRANCH   6  21
ATOM     21  O   UNL     1      -1.287   5.739   0.845  1.00  0.00    -0.500 OA
ATOM     22  H   UNL     1      -1.656   5.403   1.676  1.00  0.00     0.294 HD
ENDBRANCH   6  21
TORSDOF 5
ENDMDL
MODEL 9
REMARK VINA RESULT:    -4.511      1.956      2.326
REMARK INTER + INTRA:          -6.425
REMARK INTER:                  -5.695
REMARK INTRA:                  -0.730
REMARK UNBOUND:                -0.859
REMARK SMILES Cc1ccc(C(=O)c2cc(O)c(O)c([N+](=O)[O-])c2)cc1
REMARK SMILES IDX 8 1 18 2 9 3 14 4 10 5 12 6 6 7 7 8 5 9 4 10 19 11 3 12
REMARK SMILES IDX 20 13 2 14 1 15 15 16 17 17 16 18 11 19 13 21
REMARK H PARENT 11 20 13 22
ROOT
ATOM      1  C   UNL     1      -2.231   9.486   2.123  1.00  0.00     0.033 A 
ATOM      2  C   UNL     1      -3.070   8.421   1.888  1.00  0.00     0.102 A 
ATOM      3  C   UNL     1      -0.864   9.400   2.005  1.00  0.00     0.063 A 
ATOM      4  C   UNL     1      -2.509   7.201   1.511  1.00  0.00     0.315 A 
ATOM      5  C   UNL     1      -0.303   8.179   1.629  1.00  0.00     0.165 A 
ATOM      6  C   UNL     1      -1.126   7.079   1.381  1.00  0.00     0.237 A 
ENDROOT
BRANCH   1   7
ATOM      7  C   UNL     1      -2.832  10.793   2.527  1.00  0.00     0.193 C 
ATOM      8  O   UNL     1      -3.691  10.772   3.421  1.00  0.00    -0.289 OA
BRANCH   7   9
ATOM      9  C   UNL     1      -2.442  12.052   1.914  1.00  0.00     0.023 A 
ATOM     10  C   UNL     1      -1.354  12.766   2.416  1.00  0.00     0.012 A 
ATOM     11  C   UNL     1      -3.156  12.547   0.823  1.00  0.00     0.012 A 
ATOM     12  C   UNL     1      -0.981  13.974   1.828  1.00  0.00     0.004 A 
ATOM     13  C   UNL     1      -2.783  13.756   0.233  1.00  0.00     0.004 A 
ATOM     14  C   UNL     1      -1.695  14.469   0.736  1.00  0.00    -0.051 A 
ATOM     15  C   UNL     1      -1.297  15.761   0.108  1.00  0.00     0.044 C 
ENDBRANCH   7   9
ENDBRANCH   1   7
BRANCH   4  16
ATOM     16  N   UNL     1      -3.363   6.092   1.263  1.00  0.00     0.066 N 
ATOM     17  O   UNL     1      -3.216   5.049   1.945  1.00  0.00    -0.258 OA
ATOM     18  O   UNL     1      -4.238   6.188   0.371  1.00  0.00    -0.258 OA
ENDBRANCH   4  16
BRANCH   5  19
ATOM     19  O   UNL     1       1.050   8.075   1.506  1.00  0.00    -0.504 OA
ATOM     20  H   UNL     1       1.466   8.193   2.376  1.00  0.00     0.293 HD
ENDBRANCH   5  19
BRANCH   6  21
ATOM     21  O   UNL     1      -0.565   5.891   1.013  1.00  0.00    -0.500 OA
ATOM     22  H   UNL     1       0.400   5.944   1.102  1.00  0.00     0.294 HD
ENDBRANCH   6  21
TORSDOF 5
ENDMDL
