MODEL 1
REMARK VINA RESULT:    -5.318      0.000      0.000
REMARK INTER + INTRA:          -7.239
REMARK INTER:                  -6.562
REMARK INTRA:                  -0.677
REMARK UNBOUND:                -0.677
REMARK SMILES Cc1ccc(C(=O)c2cc(O)c(O)c([N+](=O)[O-])c2)cc1
REMARK SMILES IDX 8 1 18 2 9 3 14 4 10 5 12 6 6 7 7 8 5 9 4 10 19 11 3 12
REMARK SMILES IDX 20 13 2 14 1 15 15 16 17 17 16 18 11 19 13 21
REMARK H PARENT 11 20 13 22
ROOT
ATOM      1  C   UNL     1       5.207   5.417  -0.750  1.00  0.00     0.033 A 
ATOM      2  C   UNL     1       4.012   6.068  -0.546  1.00  0.00     0.102 A 
ATOM      3  C   UNL     1       5.351   4.058  -0.602  1.00  0.00     0.063 A 
ATOM      4  C   UNL     1       2.897   5.315  -0.176  1.00  0.00     0.315 A 
ATOM      5  C   UNL     1       4.236   3.305  -0.231  1.00  0.00     0.165 A 
ATOM      6  C   UNL     1       3.009   3.934  -0.018  1.00  0.00     0.237 A 
ENDROOT
BRANCH   1   7
ATOM      7  C   UNL     1       6.401   6.223  -1.146  1.00  0.00     0.193 C 
ATOM      8  O   UNL     1       7.229   5.682  -1.895  1.00  0.00    -0.289 OA
BRANCH   7   9
ATOM      9  C   UNL     1       6.607   7.588  -0.689  1.00  0.00     0.023 A 
ATOM     10  C   UNL     1       7.463   7.842   0.382  1.00  0.00     0.012 A 
ATOM     11  C   UNL     1       5.950   8.642  -1.322  1.00  0.00     0.012 A 
ATOM     12  C   UNL     1       7.661   9.151   0.821  1.00  0.00     0.004 A 
ATOM     13  C   UNL     1       6.148   9.952  -0.884  1.00  0.00     0.004 A 
ATOM     14  C   UNL     1       7.004  10.207   0.188  1.00  0.00    -0.051 A 
ATOM     15  C   UNL     1       7.215  11.606   0.657  1.00  0.00     0.044 C 
ENDBRANCH   7   9
ENDBRANCH   1   7
BRANCH   4  16
ATOM     16  N   UNL     1       1.655   5.974   0.038  1.00  0.00     0.066 N 
ATOM     17  O   UNL     1       0.820   5.455   0.817  1.00  0.00    -0.258 OA
ATOM     18  O   UNL     1       1.432   7.053  -0.558  1.00  0.00    -0.258 OA
ENDBRANCH   4  16
BRANCH   5  19
ATOM     19  O   UNL     1       4.360   1.957  -0.081  1.00  0.00    -0.504 OA
ATOM     20  H   UNL     1       4.842   1.588  -0.840  1.00  0.00     0.293 HD
ENDBRANCH   5  19
BRANCH   6  21
ATOM     21  O   UNL     1       1.926   3.187   0.345  1.00  0.00    -0.500 OA
ATOM     22  H   UNL     1       1.428   3.649   1.037  1.00  0.00     0.294 HD
ENDBRANCH   6  21
TORSDOF 5
ENDMDL
MODEL 2
REMARK VINA RESULT:    -5.283      2.003      3.523
REMARK INTER + INTRA:          -7.196
REMARK INTER:                  -6.432
REMARK INTRA:                  -0.764
REMARK UNBOUND:                -0.677
REMARK SMILES Cc1ccc(C(=O)c2cc(O)c(O)c([N+](=O)[O-])c2)cc1
REMARK SMILES IDX 8 1 18 2 9 3 14 4 10 5 12 6 6 7 7 8 5 9 4 10 19 11 3 12
REMARK SMILES IDX 20 13 2 14 1 15 15 16 17 17 16 18 11 19 13 21
REMARK H PARENT 11 20 13 22
ROOT
ATOM      1  C   UNL     1       4.351   6.455   0.458  1.00  0.00     0.033 A 
ATOM      2  C   UNL     1       4.999   5.241   0.462  1.00  0.00     0.102 A 
ATOM      3  C   UNL     1       2.987   6.573   0.336  1.00  0.00     0.063 A 
ATOM      4  C   UNL     1       4.237   4.079   0.338  1.00  0.00     0.315 A 
ATOM      5  C   UNL     1       2.226   5.411   0.211  1.00  0.00     0.165 A 
ATOM      6  C   UNL     1       2.851   4.163   0.212  1.00  0.00     0.237 A 
ENDROOT
BRANCH   1   7
ATOM      7  C   UNL     1       5.167   7.699   0.591  1.00  0.00     0.193 C 
ATOM      8  O   UNL     1       4.721   8.596   1.322  1.00  0.00    -0.289 OA
BRANCH   7   9
ATOM      9  C   UNL     1       6.435   7.878  -0.098  1.00  0.00     0.023 A 
ATOM     10  C   UNL     1       6.478   8.554  -1.317  1.00  0.00     0.012 A 
ATOM     11  C   UNL     1       7.609   7.373   0.461  1.00  0.00     0.012 A 
ATOM     12  C   UNL     1       7.695   8.725  -1.977  1.00  0.00     0.004 A 
ATOM     13  C   UNL     1       8.827   7.544  -0.198  1.00  0.00     0.004 A 
ATOM     14  C   UNL     1       8.870   8.220  -1.418  1.00  0.00    -0.051 A 
ATOM     15  C   UNL     1      10.170   8.402  -2.124  1.00  0.00     0.044 C 
ENDBRANCH   7   9
ENDBRANCH   1   7
BRANCH   4  16
ATOM     16  N   UNL     1       4.892   2.816   0.341  1.00  0.00     0.066 N 
ATOM     17  O   UNL     1       5.891   2.654   1.082  1.00  0.00    -0.258 OA
ATOM     18  O   UNL     1       4.451   1.904  -0.396  1.00  0.00    -0.258 OA
ENDBRANCH   4  16
BRANCH   5  19
ATOM     19  O   UNL     1       0.872   5.508   0.090  1.00  0.00    -0.504 OA
ATOM     20  H   UNL     1       0.449   4.774   0.565  1.00  0.00     0.293 HD
ENDBRANCH   5  19
BRANCH   6  21
ATOM     21  O   UNL     1       2.095   3.033   0.090  1.00  0.00    -0.500 OA
ATOM     22  H   UNL     1       2.362   2.547  -0.705  1.00  0.00     0.294 HD
ENDBRANCH   6  21
TORSDOF 5
ENDMDL
MODEL 3
REMARK VINA RESULT:    -4.714      3.669      6.540
REMARK INTER + INTRA:          -6.493
REMARK INTER:                  -5.519
REMARK INTRA:                  -0.973
REMARK UNBOUND:                -0.677
REMARK SMILES Cc1ccc(C(=O)c2cc(O)c(O)c([N+](=O)[O-])c2)cc1
REMARK SMILES IDX 8 1 18 2 9 3 14 4 10 5 12 6 6 7 7 8 5 9 4 10 19 11 3 12
REMARK SMILES IDX 20 13 2 14 1 15 15 16 17 17 16 18 11 19 13 21
REMARK H PARENT 11 20 13 22
ROOT
ATOM      1  C   UNL     1       7.508   7.986  -0.036  1.00  0.00     0.033 A 
ATOM      2  C   UNL     1       7.136   9.204   0.484  1.00  0.00     0.102 A 
ATOM      3  C   UNL     1       8.584   7.830  -0.877  1.00  0.00     0.063 A 
ATOM      4  C   UNL     1       7.884  10.330   0.143  1.00  0.00     0.315 A 
ATOM      5  C   UNL     1       9.332   8.958  -1.219  1.00  0.00     0.165 A 
ATOM      6  C   UNL     1       8.982  10.208  -0.708  1.00  0.00     0.237 A 
ENDROOT
BRANCH   1   7
ATOM      7  C   UNL     1       6.707   6.778   0.328  1.00  0.00     0.193 C 
ATOM      8  O   UNL     1       7.317   5.819   0.823  1.00  0.00    -0.289 OA
BRANCH   7   9
ATOM      9  C   UNL     1       5.269   6.705   0.122  1.00  0.00     0.023 A 
ATOM     10  C   UNL     1       4.434   6.310   1.167  1.00  0.00     0.012 A 
ATOM     11  C   UNL     1       4.726   7.029  -1.121  1.00  0.00     0.012 A 
ATOM     12  C   UNL     1       3.055   6.240   0.969  1.00  0.00     0.004 A 
ATOM     13  C   UNL     1       3.346   6.960  -1.320  1.00  0.00     0.004 A 
ATOM     14  C   UNL     1       2.511   6.565  -0.275  1.00  0.00    -0.051 A 
ATOM     15  C   UNL     1       1.037   6.489  -0.486  1.00  0.00     0.044 C 
ENDBRANCH   7   9
ENDBRANCH   1   7
BRANCH   4  16
ATOM     16  N   UNL     1       7.512  11.596   0.673  1.00  0.00     0.066 N 
ATOM     17  O   UNL     1       8.405  12.453   0.881  1.00  0.00    -0.258 OA
ATOM     18  O   UNL     1       6.303  11.819   0.917  1.00  0.00    -0.258 OA
ENDBRANCH   4  16
BRANCH   5  19
ATOM     19  O   UNL     1      10.403   8.823  -2.051  1.00  0.00    -0.504 OA
ATOM     20  H   UNL     1      10.322   9.449  -2.789  1.00  0.00     0.293 HD
ENDBRANCH   5  19
BRANCH   6  21
ATOM     21  O   UNL     1       9.722  11.303  -1.048  1.00  0.00    -0.500 OA
ATOM     22  H   UNL     1       9.297  12.104  -0.702  1.00  0.00     0.294 HD
ENDBRANCH   6  21
TORSDOF 5
ENDMDL
MODEL 4
REMARK VINA RESULT:    -4.691      3.563      7.275
REMARK INTER + INTRA:          -6.464
REMARK INTER:                  -5.450
REMARK INTRA:                  -1.014
REMARK UNBOUND:                -0.677
REMARK SMILES Cc1ccc(C(=O)c2cc(O)c(O)c([N+](=O)[O-])c2)cc1
REMARK SMILES IDX 8 1 18 2 9 3 14 4 10 5 12 6 6 7 7 8 5 9 4 10 19 11 3 12
REMARK SMILES IDX 20 13 2 14 1 15 15 16 17 17 16 18 11 19 13 21
REMARK H PARENT 11 20 13 22
ROOT
ATOM      1  C   UNL     1       6.861   8.655  -0.902  1.00  0.00     0.033 A 
ATOM      2  C   UNL     1       7.925   8.205  -1.649  1.00  0.00     0.102 A 
ATOM      3  C   UNL     1       6.905   9.812  -0.161  1.00  0.00     0.063 A 
ATOM      4  C   UNL     1       9.100   8.958  -1.656  1.00  0.00     0.315 A 
ATOM      5  C   UNL     1       8.080  10.564  -0.168  1.00  0.00     0.165 A 
ATOM      6  C   UNL     1       9.178  10.137  -0.916  1.00  0.00     0.237 A 
ENDROOT
BRANCH   1   7
ATOM      7  C   UNL     1       5.603   7.849  -0.893  1.00  0.00     0.193 C 
ATOM      8  O   UNL     1       4.556   8.425  -1.226  1.00  0.00    -0.289 OA
BRANCH   7   9
ATOM      9  C   UNL     1       5.578   6.445  -0.515  1.00  0.00     0.023 A 
ATOM     10  C   UNL     1       5.057   5.495  -1.393  1.00  0.00     0.012 A 
ATOM     11  C   UNL     1       6.076   6.049   0.726  1.00  0.00     0.012 A 
ATOM     12  C   UNL     1       5.034   4.149  -1.030  1.00  0.00     0.004 A 
ATOM     13  C   UNL     1       6.054   4.702   1.090  1.00  0.00     0.004 A 
ATOM     14  C   UNL     1       5.532   3.751   0.211  1.00  0.00    -0.051 A 
ATOM     15  C   UNL     1       5.506   2.312   0.599  1.00  0.00     0.044 C 
ENDBRANCH   7   9
ENDBRANCH   1   7
BRANCH   4  16
ATOM     16  N   UNL     1      10.208   8.506  -2.424  1.00  0.00     0.066 N 
ATOM     17  O   UNL     1      10.991   9.354  -2.916  1.00  0.00    -0.258 OA
ATOM     18  O   UNL     1      10.371   7.274  -2.587  1.00  0.00    -0.258 OA
ENDBRANCH   4  16
BRANCH   5  19
ATOM     19  O   UNL     1       8.142  11.715   0.559  1.00  0.00    -0.504 OA
ATOM     20  H   UNL     1       7.629  12.410   0.113  1.00  0.00     0.293 HD
ENDBRANCH   5  19
BRANCH   6  21
ATOM     21  O   UNL     1      10.321  10.882  -0.916  1.00  0.00    -0.500 OA
ATOM     22  H   UNL     1      10.812  10.727  -1.738  1.00  0.00     0.294 HD
ENDBRANCH   6  21
TORSDOF 5
ENDMDL
MODEL 5
REMARK VINA RESULT:    -4.690      3.734      6.853
REMARK INTER + INTRA:          -6.464
REMARK INTER:                  -5.492
REMARK INTRA:                  -0.971
REMARK UNBOUND:                -0.677
REMARK SMILES Cc1ccc(C(=O)c2cc(O)c(O)c([N+](=O)[O-])c2)cc1
REMARK SMILES IDX 8 1 18 2 9 3 14 4 10 5 12 6 6 7 7 8 5 9 4 10 19 11 3 12
REMARK SMILES IDX 20 13 2 14 1 15 15 16 17 17 16 18 11 19 13 21
REMARK H PARENT 11 20 13 22
ROOT
ATOM      1  C   UNL     1       6.821   8.613  -0.914  1.00  0.00     0.033 A 
ATOM      2  C   UNL     1       6.821   9.801  -0.222  1.00  0.00     0.102 A 
ATOM      3  C   UNL     1       7.921   8.144  -1.592  1.00  0.00     0.063 A 
ATOM      4  C   UNL     1       7.989  10.564  -0.205  1.00  0.00     0.315 A 
ATOM      5  C   UNL     1       9.089   8.907  -1.576  1.00  0.00     0.165 A 
ATOM      6  C   UNL     1       9.123  10.117  -0.882  1.00  0.00     0.237 A 
ENDROOT
BRANCH   1   7
ATOM      7  C   UNL     1       5.570   7.796  -0.932  1.00  0.00     0.193 C 
ATOM      8  O   UNL     1       4.528   8.359  -1.300  1.00  0.00    -0.289 OA
BRANCH   7   9
ATOM      9  C   UNL     1       5.548   6.396  -0.539  1.00  0.00     0.023 A 
ATOM     10  C   UNL     1       6.057   6.011   0.701  1.00  0.00     0.012 A 
ATOM     11  C   UNL     1       5.016   5.438  -1.402  1.00  0.00     0.012 A 
ATOM     12  C   UNL     1       6.035   4.669   1.078  1.00  0.00     0.004 A 
ATOM     13  C   UNL     1       4.994   4.094  -1.026  1.00  0.00     0.004 A 
ATOM     14  C   UNL     1       5.503   3.710   0.215  1.00  0.00    -0.051 A 
ATOM     15  C   UNL     1       5.481   2.274   0.617  1.00  0.00     0.044 C 
ENDBRANCH   7   9
ENDBRANCH   1   7
BRANCH   4  16
ATOM     16  N   UNL     1       8.004  11.795   0.507  1.00  0.00     0.066 N 
ATOM     17  O   UNL     1       8.778  12.706   0.126  1.00  0.00    -0.258 OA
ATOM     18  O   UNL     1       7.243  11.933   1.493  1.00  0.00    -0.258 OA
ENDBRANCH   4  16
BRANCH   5  19
ATOM     19  O   UNL     1      10.190   8.458  -2.242  1.00  0.00    -0.504 OA
ATOM     20  H   UNL     1      10.821   9.188  -2.358  1.00  0.00     0.293 HD
ENDBRANCH   5  19
BRANCH   6  21
ATOM     21  O   UNL     1      10.272  10.854  -0.874  1.00  0.00    -0.500 OA
ATOM     22  H   UNL     1      10.499  11.093   0.038  1.00  0.00     0.294 HD
ENDBRANCH   6  21
TORSDOF 5
ENDMDL
MODEL 6
REMARK VINA RESULT:    -4.670      3.773      7.059
REMARK INTER + INTRA:          -6.438
REMARK INTER:                  -5.451
REMARK INTRA:                  -0.987
REMARK UNBOUND:                -0.677
REMARK SMILES Cc1ccc(C(=O)c2cc(O)c(O)c([N+](=O)[O-])c2)cc1
REMARK SMILES IDX 8 1 18 2 9 3 14 4 10 5 12 6 6 7 7 8 5 9 4 10 19 11 3 12
REMARK SMILES IDX 20 13 2 14 1 15 15 16 17 17 16 18 11 19 13 21
REMARK H PARENT 11 20 13 22
ROOT
ATOM      1  C   UNL     1       7.464   8.083  -0.025  1.00  0.00     0.033 A 
ATOM      2  C   UNL     1       8.509   7.991  -0.915  1.00  0.00     0.102 A 
ATOM      3  C   UNL     1       7.097   9.264   0.575  1.00  0.00     0.063 A 
ATOM      4  C   UNL     1       9.227   9.147  -1.223  1.00  0.00     0.315 A 
ATOM      5  C   UNL     1       7.815  10.420   0.268  1.00  0.00     0.165 A 
ATOM      6  C   UNL     1       8.880  10.362  -0.631  1.00  0.00     0.237 A 
ENDROOT
BRANCH   1   7
ATOM      7  C   UNL     1       6.695   6.845   0.305  1.00  0.00     0.193 C 
ATOM      8  O   UNL     1       7.333   5.885   0.763  1.00  0.00    -0.289 OA
BRANCH   7   9
ATOM      9  C   UNL     1       5.258   6.744   0.107  1.00  0.00     0.023 A 
ATOM     10  C   UNL     1       4.702   7.044  -1.137  1.00  0.00     0.012 A 
ATOM     11  C   UNL     1       4.436   6.347   1.161  1.00  0.00     0.012 A 
ATOM     12  C   UNL     1       3.324   6.947  -1.326  1.00  0.00     0.004 A 
ATOM     13  C   UNL     1       3.056   6.249   0.972  1.00  0.00     0.004 A 
ATOM     14  C   UNL     1       2.500   6.549  -0.271  1.00  0.00    -0.051 A 
ATOM     15  C   UNL     1       1.027   6.446  -0.474  1.00  0.00     0.044 C 
ENDBRANCH   7   9
ENDBRANCH   1   7
BRANCH   4  16
ATOM     16  N   UNL     1      10.309   9.068  -2.141  1.00  0.00     0.066 N 
ATOM     17  O   UNL     1      10.285   8.184  -3.032  1.00  0.00    -0.258 OA
ATOM     18  O   UNL     1      11.255   9.883  -2.035  1.00  0.00    -0.258 OA
ENDBRANCH   4  16
BRANCH   5  19
ATOM     19  O   UNL     1       7.465  11.600   0.853  1.00  0.00    -0.504 OA
ATOM     20  H   UNL     1       7.038  12.175   0.197  1.00  0.00     0.293 HD
ENDBRANCH   5  19
BRANCH   6  21
ATOM     21  O   UNL     1       9.574  11.499  -0.924  1.00  0.00    -0.500 OA
ATOM     22  H   UNL     1       9.156  11.953  -1.673  1.00  0.00     0.294 HD
ENDBRANCH   6  21
TORSDOF 5
ENDMDL
MODEL 7
REMARK VINA RESULT:    -4.630      1.655      2.975
REMARK INTER + INTRA:          -6.390
REMARK INTER:                  -5.771
REMARK INTRA:                  -0.619
REMARK UNBOUND:                -0.677
REMARK SMILES Cc1ccc(C(=O)c2cc(O)c(O)c([N+](=O)[O-])c2)cc1
REMARK SMILES IDX 8 1 18 2 9 3 14 4 10 5 12 6 6 7 7 8 5 9 4 10 19 11 3 12
REMARK SMILES IDX 20 13 2 14 1 15 15 16 17 17 16 18 11 19 13 21
REMARK H PARENT 11 20 13 22
ROOT
ATOM      1  C   UNL     1       3.691   5.973  -1.107  1.00  0.00     0.033 A 
ATOM      2  C   UNL     1       4.404   4.802  -0.991  1.00  0.00     0.102 A 
ATOM      3  C   UNL     1       2.458   6.157  -0.529  1.00  0.00     0.063 A 
ATOM      4  C   UNL     1       3.851   3.756  -0.252  1.00  0.00     0.315 A 
ATOM      5  C   UNL     1       1.904   5.110   0.209  1.00  0.00     0.165 A 
ATOM      6  C   UNL     1       2.602   3.909   0.348  1.00  0.00     0.237 A 
ENDROOT
BRANCH   1   7
ATOM      7  C   UNL     1       4.283   7.094  -1.898  1.00  0.00     0.193 C 
ATOM      8  O   UNL     1       3.893   7.232  -3.068  1.00  0.00    -0.289 OA
BRANCH   7   9
ATOM      9  C   UNL     1       5.276   7.999  -1.345  1.00  0.00     0.023 A 
ATOM     10  C   UNL     1       6.173   7.545  -0.377  1.00  0.00     0.012 A 
ATOM     11  C   UNL     1       5.333   9.323  -1.781  1.00  0.00     0.012 A 
ATOM     12  C   UNL     1       7.126   8.414   0.153  1.00  0.00     0.004 A 
ATOM     13  C   UNL     1       6.287  10.193  -1.250  1.00  0.00     0.004 A 
ATOM     14  C   UNL     1       7.183   9.738  -0.283  1.00  0.00    -0.051 A 
ATOM     15  C   UNL     1       8.201  10.667   0.286  1.00  0.00     0.044 C 
ENDBRANCH   7   9
ENDBRANCH   1   7
BRANCH   4  16
ATOM     16  N   UNL     1       4.576   2.539  -0.122  1.00  0.00     0.066 N 
ATOM     17  O   UNL     1       5.704   2.562   0.427  1.00  0.00    -0.258 OA
ATOM     18  O   UNL     1       4.067   1.481  -0.559  1.00  0.00    -0.258 OA
ENDBRANCH   4  16
BRANCH   5  19
ATOM     19  O   UNL     1       0.683   5.275   0.791  1.00  0.00    -0.504 OA
ATOM     20  H   UNL     1       0.737   5.042   1.732  1.00  0.00     0.293 HD
ENDBRANCH   5  19
BRANCH   6  21
ATOM     21  O   UNL     1       2.050   2.893   1.073  1.00  0.00    -0.500 OA
ATOM     22  H   UNL     1       2.522   2.066   0.887  1.00  0.00     0.294 HD
ENDBRANCH   6  21
TORSDOF 5
ENDMDL
MODEL 8
REMARK VINA RESULT:    -4.485      1.287      2.918
REMARK INTER + INTRA:          -6.211
REMARK INTER:                  -5.545
REMARK INTRA:                  -0.666
REMARK UNBOUND:                -0.677
REMARK SMILES Cc1ccc(C(=O)c2cc(O)c(O)c([N+](=O)[O-])c2)cc1
REMARK SMILES IDX 8 1 18 2 9 3 14 4 10 5 12 6 6 7 7 8 5 9 4 10 19 11 3 12
REMARK SMILES IDX 20 13 2 14 1 15 15 16 17 17 16 18 11 19 13 21
REMARK H PARENT 11 20 13 22
ROOT
ATOM      1  C   UNL     1       5.469   5.986  -0.735  1.00  0.00     0.033 A 
ATOM      2  C   UNL     1       5.663   4.663  -0.411  1.00  0.00     0.102 A 
ATOM      3  C   UNL     1       4.223   6.563  -0.800  1.00  0.00     0.063 A 
ATOM      4  C   UNL     1       4.548   3.873  -0.137  1.00  0.00     0.315 A 
ATOM      5  C   UNL     1       3.106   5.772  -0.526  1.00  0.00     0.165 A 
ATOM      6  C   UNL     1       3.269   4.427  -0.194  1.00  0.00     0.237 A 
ENDROOT
BRANCH   1   7
ATOM      7  C   UNL     1       6.664   6.833  -1.029  1.00  0.00     0.193 C 
ATOM      8  O   UNL     1       7.548   6.340  -1.746  1.00  0.00    -0.289 OA
BRANCH   7   9
ATOM      9  C   UNL     1       6.810   8.183  -0.509  1.00  0.00     0.023 A 
ATOM     10  C   UNL     1       6.187   9.251  -1.155  1.00  0.00     0.012 A 
ATOM     11  C   UNL     1       7.573   8.411   0.636  1.00  0.00     0.012 A 
ATOM     12  C   UNL     1       6.327  10.545  -0.656  1.00  0.00     0.004 A 
ATOM     13  C   UNL     1       7.714   9.706   1.136  1.00  0.00     0.004 A 
ATOM     14  C   UNL     1       7.090  10.774   0.490  1.00  0.00    -0.051 A 
ATOM     15  C   UNL     1       7.241  12.158   1.022  1.00  0.00     0.044 C 
ENDBRANCH   7   9
ENDBRANCH   1   7
BRANCH   4  16
ATOM     16  N   UNL     1       4.733   2.504   0.200  1.00  0.00     0.066 N 
ATOM     17  O   UNL     1       4.171   1.626  -0.500  1.00  0.00    -0.258 OA
ATOM     18  O   UNL     1       5.452   2.214   1.184  1.00  0.00    -0.258 OA
ENDBRANCH   4  16
BRANCH   5  19
ATOM     19  O   UNL     1       1.863   6.327  -0.586  1.00  0.00    -0.504 OA
ATOM     20  H   UNL     1       1.272   5.747  -1.092  1.00  0.00     0.293 HD
ENDBRANCH   5  19
BRANCH   6  21
ATOM     21  O   UNL     1       2.169   3.664   0.073  1.00  0.00    -0.500 OA
ATOM     22  H   UNL     1       1.778   3.939   0.916  1.00  0.00     0.294 HD
ENDBRANCH   6  21
TORSDOF 5
ENDMDL
MODEL 9
REMARK VINA RESULT:    -4.478      1.934      2.538
REMARK INTER + INTRA:          -6.202
REMARK INTER:                  -5.541
REMARK INTRA:                  -0.661
REMARK UNBOUND:                -0.677
REMARK SMILES Cc1ccc(C(=O)c2cc(O)c(O)c([N+](=O)[O-])c2)cc1
REMARK SMILES IDX 8 1 18 2 9 3 14 4 10 5 12 6 6 7 7 8 5 9 4 10 19 11 3 12
REMARK SMILES IDX 20 13 2 14 1 15 15 16 17 17 16 18 11 19 13 21
REMARK H PARENT 11 20 13 22
ROOT
ATOM      1  C   UNL     1       4.880   6.709   0.335  1.00  0.00     0.033 A 
ATOM      2  C   UNL     1       3.518   6.826   0.179  1.00  0.00     0.102 A 
ATOM      3  C   UNL     1       5.512   5.498   0.493  1.00  0.00     0.063 A 
ATOM      4  C   UNL     1       2.745   5.665   0.179  1.00  0.00     0.315 A 
ATOM      5  C   UNL     1       4.738   4.337   0.494  1.00  0.00     0.165 A 
ATOM      6  C   UNL     1       3.354   4.420   0.336  1.00  0.00     0.237 A 
ENDROOT
BRANCH   1   7
ATOM      7  C   UNL     1       5.708   7.952   0.335  1.00  0.00     0.193 C 
ATOM      8  O   UNL     1       5.283   8.919   0.986  1.00  0.00    -0.289 OA
BRANCH   7   9
ATOM      9  C   UNL     1       6.965   8.051  -0.389  1.00  0.00     0.023 A 
ATOM     10  C   UNL     1       7.000   8.652  -1.647  1.00  0.00     0.012 A 
ATOM     11  C   UNL     1       8.137   7.546   0.175  1.00  0.00     0.012 A 
ATOM     12  C   UNL     1       8.206   8.747  -2.341  1.00  0.00     0.004 A 
ATOM     13  C   UNL     1       9.344   7.642  -0.519  1.00  0.00     0.004 A 
ATOM     14  C   UNL     1       9.378   8.242  -1.777  1.00  0.00    -0.051 A 
ATOM     15  C   UNL     1      10.667   8.343  -2.521  1.00  0.00     0.044 C 
ENDBRANCH   7   9
ENDBRANCH   1   7
BRANCH   4  16
ATOM     16  N   UNL     1       1.336   5.770   0.018  1.00  0.00     0.066 N 
ATOM     17  O   UNL     1       0.587   5.299   0.908  1.00  0.00    -0.258 OA
ATOM     18  O   UNL     1       0.884   6.329  -1.008  1.00  0.00    -0.258 OA
ENDBRANCH   4  16
BRANCH   5  19
ATOM     19  O   UNL     1       5.348   3.128   0.648  1.00  0.00    -0.504 OA
ATOM     20  H   UNL     1       6.293   3.211   0.441  1.00  0.00     0.293 HD
ENDBRANCH   5  19
BRANCH   6  21
ATOM     21  O   UNL     1       2.609   3.277   0.338  1.00  0.00    -0.500 OA
ATOM     22  H   UNL     1       2.925   2.682   1.035  1.00  0.00     0.294 HD
ENDBRANCH   6  21
TORSDOF 5
ENDMDL
