MODEL 1
REMARK VINA RESULT:    -6.891      0.000      0.000
REMARK INTER + INTRA:          -8.669
REMARK INTER:                  -8.099
REMARK INTRA:                  -0.570
REMARK UNBOUND:                -0.570
REMARK SMILES O=C(O)c1cc(-c2ccc(F)cc2F)ccc1O
REMARK SMILES IDX 6 1 5 2 15 3 4 4 17 5 16 6 7 7 13 8 12 9 8 10 10 11 9 12
REMARK SMILES IDX 14 13 11 14 2 15 1 16 3 17 18 19
REMARK H PARENT 3 18 18 20
ROOT
ATOM      1  C   UNL     1       4.841   6.070  -0.162  1.00  0.00    -0.014 A 
ATOM      2  C   UNL     1       5.250   4.742  -0.049  1.00  0.00     0.028 A 
ATOM      3  C   UNL     1       3.484   6.388  -0.113  1.00  0.00     0.013 A 
ATOM      4  C   UNL     1       4.302   3.731   0.113  1.00  0.00     0.102 A 
ATOM      5  C   UNL     1       2.945   4.049   0.162  1.00  0.00     0.130 A 
ATOM      6  C   UNL     1       2.536   5.379   0.049  1.00  0.00     0.048 A 
ENDROOT
BRANCH   1   7
ATOM      7  C   UNL     1       5.824   7.119  -0.331  1.00  0.00     0.018 A 
ATOM      8  C   UNL     1       5.626   8.116  -1.287  1.00  0.00     0.133 A 
ATOM      9  C   UNL     1       6.576   9.125  -1.447  1.00  0.00     0.079 A 
ATOM     10  C   UNL     1       6.969   7.132   0.465  1.00  0.00     0.015 A 
ATOM     11  C   UNL     1       7.722   9.138  -0.651  1.00  0.00     0.126 A 
ATOM     12  C   UNL     1       7.917   8.141   0.305  1.00  0.00     0.040 A 
ATOM     13  F   UNL     1       4.532   8.116  -2.062  1.00  0.00    -0.206 F 
ATOM     14  F   UNL     1       8.634  10.106  -0.804  1.00  0.00    -0.207 F 
ENDBRANCH   1   7
BRANCH   4  15
ATOM     15  C   UNL     1       4.750   2.350   0.229  1.00  0.00     0.339 C 
ATOM     16  O   UNL     1       4.347   1.409  -0.459  1.00  0.00    -0.246 OA
BRANCH  15  17
ATOM     17  O   UNL     1       5.690   2.190   1.200  1.00  0.00    -0.478 OA
ATOM     18  H   UNL     1       6.208   3.009   1.345  1.00  0.00     0.297 HD
ENDBRANCH  15  17
ENDBRANCH   4  15
BRANCH   5  19
ATOM     19  O   UNL     1       2.003   3.077   0.320  1.00  0.00    -0.507 OA
ATOM     20  H   UNL     1       1.241   3.447   0.798  1.00  0.00     0.293 HD
ENDBRANCH   5  19
TORSDOF 4
ENDMDL
MODEL 2
REMARK VINA RESULT:    -6.890      1.213      2.691
REMARK INTER + INTRA:          -8.668
REMARK INTER:                  -8.111
REMARK INTRA:                  -0.558
REMARK UNBOUND:                -0.570
REMARK SMILES O=C(O)c1cc(-c2ccc(F)cc2F)ccc1O
REMARK SMILES IDX 6 1 5 2 15 3 4 4 17 5 16 6 7 7 13 8 12 9 8 10 10 11 9 12
REMARK SMILES IDX 14 13 11 14 2 15 1 16 3 17 18 19
REMARK H PARENT 3 18 18 20
ROOT
ATOM      1  C   UNL     1       4.896   6.042  -0.188  1.00  0.00    -0.014 A 
ATOM      2  C   UNL     1       3.546   6.392  -0.159  1.00  0.00     0.028 A 
ATOM      3  C   UNL     1       5.272   4.703  -0.081  1.00  0.00     0.013 A 
ATOM      4  C   UNL     1       2.572   5.403  -0.022  1.00  0.00     0.102 A 
ATOM      5  C   UNL     1       2.948   4.064   0.086  1.00  0.00     0.130 A 
ATOM      6  C   UNL     1       4.299   3.714   0.056  1.00  0.00     0.048 A 
ENDROOT
BRANCH   1   7
ATOM      7  C   UNL     1       5.907   7.068  -0.329  1.00  0.00     0.018 A 
ATOM      8  C   UNL     1       5.734   8.100  -1.252  1.00  0.00     0.133 A 
ATOM      9  C   UNL     1       6.711   9.087  -1.385  1.00  0.00     0.079 A 
ATOM     10  C   UNL     1       7.055   7.023   0.461  1.00  0.00     0.015 A 
ATOM     11  C   UNL     1       7.860   9.042  -0.596  1.00  0.00     0.126 A 
ATOM     12  C   UNL     1       8.031   8.010   0.328  1.00  0.00     0.040 A 
ATOM     13  F   UNL     1       4.637   8.156  -2.021  1.00  0.00    -0.206 F 
ATOM     14  F   UNL     1       8.798   9.988  -0.722  1.00  0.00    -0.207 F 
ENDBRANCH   1   7
BRANCH   4  15
ATOM     15  C   UNL     1       1.168   5.788   0.007  1.00  0.00     0.339 C 
ATOM     16  O   UNL     1       0.356   5.465   0.877  1.00  0.00    -0.246 OA
BRANCH  15  17
ATOM     17  O   UNL     1       0.823   6.568  -1.054  1.00  0.00    -0.478 OA
ATOM     18  H   UNL     1       0.194   6.112  -1.653  1.00  0.00     0.297 HD
ENDBRANCH  15  17
ENDBRANCH   4  15
BRANCH   5  19
ATOM     19  O   UNL     1       2.012   3.082   0.220  1.00  0.00    -0.507 OA
ATOM     20  H   UNL     1       1.418   3.102  -0.551  1.00  0.00     0.293 HD
ENDBRANCH   5  19
TORSDOF 4
ENDMDL
MODEL 3
REMARK VINA RESULT:    -6.851      1.690      3.156
REMARK INTER + INTRA:          -8.623
REMARK INTER:                  -8.030
REMARK INTRA:                  -0.593
REMARK UNBOUND:                -0.570
REMARK SMILES O=C(O)c1cc(-c2ccc(F)cc2F)ccc1O
REMARK SMILES IDX 6 1 5 2 15 3 4 4 17 5 16 6 7 7 13 8 12 9 8 10 10 11 9 12
REMARK SMILES IDX 14 13 11 14 2 15 1 16 3 17 18 19
REMARK H PARENT 3 18 18 20
ROOT
ATOM      1  C   UNL     1       4.925   6.059  -0.157  1.00  0.00    -0.014 A 
ATOM      2  C   UNL     1       3.583   6.436  -0.133  1.00  0.00     0.028 A 
ATOM      3  C   UNL     1       5.273   4.712  -0.058  1.00  0.00     0.013 A 
ATOM      4  C   UNL     1       2.588   5.466  -0.010  1.00  0.00     0.102 A 
ATOM      5  C   UNL     1       2.936   4.119   0.090  1.00  0.00     0.130 A 
ATOM      6  C   UNL     1       4.279   3.742   0.066  1.00  0.00     0.048 A 
ENDROOT
BRANCH   1   7
ATOM      7  C   UNL     1       5.958   7.065  -0.284  1.00  0.00     0.018 A 
ATOM      8  C   UNL     1       7.088   7.015   0.533  1.00  0.00     0.133 A 
ATOM      9  C   UNL     1       8.081   7.987   0.407  1.00  0.00     0.079 A 
ATOM     10  C   UNL     1       5.822   8.084  -1.226  1.00  0.00     0.015 A 
ATOM     11  C   UNL     1       7.945   9.007  -0.534  1.00  0.00     0.126 A 
ATOM     12  C   UNL     1       6.815   9.055  -1.351  1.00  0.00     0.040 A 
ATOM     13  F   UNL     1       7.233   6.043   1.445  1.00  0.00    -0.206 F 
ATOM     14  F   UNL     1       8.897   9.940  -0.655  1.00  0.00    -0.207 F 
ENDBRANCH   1   7
BRANCH   4  15
ATOM     15  C   UNL     1       1.192   5.880   0.013  1.00  0.00     0.339 C 
ATOM     16  O   UNL     1       0.351   5.511   0.837  1.00  0.00    -0.246 OA
BRANCH  15  17
ATOM     17  O   UNL     1       0.891   6.743  -0.995  1.00  0.00    -0.478 OA
ATOM     18  H   UNL     1       0.567   7.603  -0.655  1.00  0.00     0.297 HD
ENDBRANCH  15  17
ENDBRANCH   4  15
BRANCH   5  19
ATOM     19  O   UNL     1       1.979   3.155   0.210  1.00  0.00    -0.507 OA
ATOM     20  H   UNL     1       2.300   2.336  -0.205  1.00  0.00     0.293 HD
ENDBRANCH   5  19
TORSDOF 4
ENDMDL
MODEL 4
REMARK VINA RESULT:    -5.580      4.410      6.724
REMARK INTER + INTRA:          -7.129
REMARK INTER:                  -6.052
REMARK INTRA:                  -1.076
REMARK UNBOUND:                -0.570
REMARK SMILES O=C(O)c1cc(-c2ccc(F)cc2F)ccc1O
REMARK SMILES IDX 6 1 5 2 15 3 4 4 17 5 16 6 7 7 13 8 12 9 8 10 10 11 9 12
REMARK SMILES IDX 14 13 11 14 2 15 1 16 3 17 18 19
REMARK H PARENT 3 18 18 20
ROOT
ATOM      1  C   UNL     1       6.612   8.044  -0.492  1.00  0.00    -0.014 A 
ATOM      2  C   UNL     1       6.510   9.303   0.098  1.00  0.00     0.028 A 
ATOM      3  C   UNL     1       7.756   7.701  -1.212  1.00  0.00     0.013 A 
ATOM      4  C   UNL     1       7.553  10.221  -0.032  1.00  0.00     0.102 A 
ATOM      5  C   UNL     1       8.698   9.878  -0.752  1.00  0.00     0.130 A 
ATOM      6  C   UNL     1       8.799   8.618  -1.343  1.00  0.00     0.048 A 
ENDROOT
BRANCH   1   7
ATOM      7  C   UNL     1       5.530   7.092  -0.359  1.00  0.00     0.018 A 
ATOM      8  C   UNL     1       4.450   7.131  -1.242  1.00  0.00     0.133 A 
ATOM      9  C   UNL     1       3.409   6.211  -1.109  1.00  0.00     0.079 A 
ATOM     10  C   UNL     1       5.570   6.134   0.654  1.00  0.00     0.015 A 
ATOM     11  C   UNL     1       3.448   5.254  -0.096  1.00  0.00     0.126 A 
ATOM     12  C   UNL     1       4.529   5.215   0.785  1.00  0.00     0.040 A 
ATOM     13  F   UNL     1       4.396   8.047  -2.219  1.00  0.00    -0.206 F 
ATOM     14  F   UNL     1       2.450   4.371   0.031  1.00  0.00    -0.207 F 
ENDBRANCH   1   7
BRANCH   4  15
ATOM     15  C   UNL     1       7.428  11.531   0.592  1.00  0.00     0.339 C 
ATOM     16  O   UNL     1       8.342  12.348   0.726  1.00  0.00    -0.246 OA
BRANCH  15  17
ATOM     17  O   UNL     1       6.162  11.779   1.026  1.00  0.00    -0.478 OA
ATOM     18  H   UNL     1       6.061  11.588   1.983  1.00  0.00     0.297 HD
ENDBRANCH  15  17
ENDBRANCH   4  15
BRANCH   5  19
ATOM     19  O   UNL     1       9.728  10.760  -0.891  1.00  0.00    -0.507 OA
ATOM     20  H   UNL     1       9.906  11.177  -0.030  1.00  0.00     0.293 HD
ENDBRANCH   5  19
TORSDOF 4
ENDMDL
MODEL 5
REMARK VINA RESULT:    -5.580      4.266      6.532
REMARK INTER + INTRA:          -7.128
REMARK INTER:                  -6.052
REMARK INTRA:                  -1.076
REMARK UNBOUND:                -0.570
REMARK SMILES O=C(O)c1cc(-c2ccc(F)cc2F)ccc1O
REMARK SMILES IDX 6 1 5 2 15 3 4 4 17 5 16 6 7 7 13 8 12 9 8 10 10 11 9 12
REMARK SMILES IDX 14 13 11 14 2 15 1 16 3 17 18 19
REMARK H PARENT 3 18 18 20
ROOT
ATOM      1  C   UNL     1       6.836   7.872  -0.355  1.00  0.00    -0.014 A 
ATOM      2  C   UNL     1       8.001   7.704  -1.104  1.00  0.00     0.028 A 
ATOM      3  C   UNL     1       6.562   9.102   0.243  1.00  0.00     0.013 A 
ATOM      4  C   UNL     1       8.892   8.767  -1.254  1.00  0.00     0.102 A 
ATOM      5  C   UNL     1       8.618   9.997  -0.656  1.00  0.00     0.130 A 
ATOM      6  C   UNL     1       7.452  10.164   0.092  1.00  0.00     0.048 A 
ENDROOT
BRANCH   1   7
ATOM      7  C   UNL     1       5.912   6.769  -0.198  1.00  0.00     0.018 A 
ATOM      8  C   UNL     1       6.113   5.825   0.810  1.00  0.00     0.133 A 
ATOM      9  C   UNL     1       5.220   4.764   0.958  1.00  0.00     0.079 A 
ATOM     10  C   UNL     1       4.817   6.654  -1.054  1.00  0.00     0.015 A 
ATOM     11  C   UNL     1       4.126   4.647   0.101  1.00  0.00     0.126 A 
ATOM     12  C   UNL     1       3.925   5.593  -0.905  1.00  0.00     0.040 A 
ATOM     13  F   UNL     1       7.162   5.920   1.639  1.00  0.00    -0.206 F 
ATOM     14  F   UNL     1       3.268   3.629   0.243  1.00  0.00    -0.207 F 
ENDBRANCH   1   7
BRANCH   4  15
ATOM     15  C   UNL     1      10.103   8.572  -2.040  1.00  0.00     0.339 C 
ATOM     16  O   UNL     1      10.872   9.467  -2.400  1.00  0.00    -0.246 OA
BRANCH  15  17
ATOM     17  O   UNL     1      10.314   7.264  -2.350  1.00  0.00    -0.478 OA
ATOM     18  H   UNL     1      11.234   6.987  -2.154  1.00  0.00     0.297 HD
ENDBRANCH  15  17
ENDBRANCH   4  15
BRANCH   5  19
ATOM     19  O   UNL     1       9.475  11.048  -0.792  1.00  0.00    -0.507 OA
ATOM     20  H   UNL     1      10.345  10.714  -1.073  1.00  0.00     0.293 HD
ENDBRANCH   5  19
TORSDOF 4
ENDMDL
MODEL 6
REMARK VINA RESULT:    -4.487      2.149      3.414
REMARK INTER + INTRA:          -5.843
REMARK INTER:                  -4.819
REMARK INTRA:                  -1.025
REMARK UNBOUND:                -0.570
REMARK SMILES O=C(O)c1cc(-c2ccc(F)cc2F)ccc1O
REMARK SMILES IDX 6 1 5 2 15 3 4 4 17 5 16 6 7 7 13 8 12 9 8 10 10 11 9 12
REMARK SMILES IDX 14 13 11 14 2 15 1 16 3 17 18 19
REMARK H PARENT 3 18 18 20
ROOT
ATOM      1  C   UNL     1       6.343   7.092  -0.210  1.00  0.00    -0.014 A 
ATOM      2  C   UNL     1       5.099   7.355  -0.781  1.00  0.00     0.028 A 
ATOM      3  C   UNL     1       6.480   6.061   0.719  1.00  0.00     0.013 A 
ATOM      4  C   UNL     1       3.990   6.588  -0.423  1.00  0.00     0.102 A 
ATOM      5  C   UNL     1       4.126   5.557   0.507  1.00  0.00     0.130 A 
ATOM      6  C   UNL     1       5.372   5.294   1.078  1.00  0.00     0.048 A 
ENDROOT
BRANCH   1   7
ATOM      7  C   UNL     1       7.493   7.888  -0.581  1.00  0.00     0.018 A 
ATOM      8  C   UNL     1       7.640   9.182  -0.080  1.00  0.00     0.133 A 
ATOM      9  C   UNL     1       8.750   9.946  -0.440  1.00  0.00     0.079 A 
ATOM     10  C   UNL     1       8.456   7.358  -1.439  1.00  0.00     0.015 A 
ATOM     11  C   UNL     1       9.713   9.417  -1.299  1.00  0.00     0.126 A 
ATOM     12  C   UNL     1       9.566   8.122  -1.798  1.00  0.00     0.040 A 
ATOM     13  F   UNL     1       6.722   9.707   0.744  1.00  0.00    -0.206 F 
ATOM     14  F   UNL     1      10.779  10.150  -1.645  1.00  0.00    -0.207 F 
ENDBRANCH   1   7
BRANCH   4  15
ATOM     15  C   UNL     1       2.699   6.879  -1.030  1.00  0.00     0.339 C 
ATOM     16  O   UNL     1       1.604   6.529  -0.583  1.00  0.00    -0.246 OA
BRANCH  15  17
ATOM     17  O   UNL     1       2.817   7.600  -2.178  1.00  0.00    -0.478 OA
ATOM     18  H   UNL     1       2.904   8.560  -1.999  1.00  0.00     0.297 HD
ENDBRANCH  15  17
ENDBRANCH   4  15
BRANCH   5  19
ATOM     19  O   UNL     1       3.056   4.796   0.871  1.00  0.00    -0.507 OA
ATOM     20  H   UNL     1       3.205   3.879   0.579  1.00  0.00     0.293 HD
ENDBRANCH   5  19
TORSDOF 4
ENDMDL
MODEL 7
REMARK VINA RESULT:    -4.286      6.308      8.663
REMARK INTER + INTRA:          -5.607
REMARK INTER:                  -4.940
REMARK INTRA:                  -0.668
REMARK UNBOUND:                -0.570
REMARK SMILES O=C(O)c1cc(-c2ccc(F)cc2F)ccc1O
REMARK SMILES IDX 6 1 5 2 15 3 4 4 17 5 16 6 7 7 13 8 12 9 8 10 10 11 9 12
REMARK SMILES IDX 14 13 11 14 2 15 1 16 3 17 18 19
REMARK H PARENT 3 18 18 20
ROOT
ATOM      1  C   UNL     1       7.690  11.502   0.622  1.00  0.00    -0.014 A 
ATOM      2  C   UNL     1       8.239  12.466  -0.223  1.00  0.00     0.028 A 
ATOM      3  C   UNL     1       7.376  11.828   1.941  1.00  0.00     0.013 A 
ATOM      4  C   UNL     1       8.475  13.757   0.252  1.00  0.00     0.102 A 
ATOM      5  C   UNL     1       8.161  14.083   1.571  1.00  0.00     0.130 A 
ATOM      6  C   UNL     1       7.611  13.117   2.416  1.00  0.00     0.048 A 
ENDROOT
BRANCH   1   7
ATOM      7  C   UNL     1       7.447  10.163   0.130  1.00  0.00     0.018 A 
ATOM      8  C   UNL     1       8.411   9.514  -0.642  1.00  0.00     0.133 A 
ATOM      9  C   UNL     1       8.172   8.223  -1.113  1.00  0.00     0.079 A 
ATOM     10  C   UNL     1       6.246   9.521   0.432  1.00  0.00     0.015 A 
ATOM     11  C   UNL     1       6.971   7.581  -0.813  1.00  0.00     0.126 A 
ATOM     12  C   UNL     1       6.008   8.230  -0.040  1.00  0.00     0.040 A 
ATOM     13  F   UNL     1       9.569  10.118  -0.942  1.00  0.00    -0.206 F 
ATOM     14  F   UNL     1       6.741   6.342  -1.265  1.00  0.00    -0.207 F 
ENDBRANCH   1   7
BRANCH   4  15
ATOM     15  C   UNL     1       9.049  14.749  -0.646  1.00  0.00     0.339 C 
ATOM     16  O   UNL     1       8.918  15.971  -0.537  1.00  0.00    -0.246 OA
BRANCH  15  17
ATOM     17  O   UNL     1       9.770  14.183  -1.652  1.00  0.00    -0.478 OA
ATOM     18  H   UNL     1       9.305  13.415  -2.046  1.00  0.00     0.297 HD
ENDBRANCH  15  17
ENDBRANCH   4  15
BRANCH   5  19
ATOM     19  O   UNL     1       8.383  15.338   2.054  1.00  0.00    -0.507 OA
ATOM     20  H   UNL     1       8.413  15.303   3.026  1.00  0.00     0.293 HD
ENDBRANCH   5  19
TORSDOF 4
ENDMDL
MODEL 8
REMARK VINA RESULT:    -4.139      9.757     11.536
REMARK INTER + INTRA:          -5.435
REMARK INTER:                  -4.376
REMARK INTRA:                  -1.059
REMARK UNBOUND:                -0.570
REMARK SMILES O=C(O)c1cc(-c2ccc(F)cc2F)ccc1O
REMARK SMILES IDX 6 1 5 2 15 3 4 4 17 5 16 6 7 7 13 8 12 9 8 10 10 11 9 12
REMARK SMILES IDX 14 13 11 14 2 15 1 16 3 17 18 19
REMARK H PARENT 3 18 18 20
ROOT
ATOM      1  C   UNL     1       9.526  15.796   2.058  1.00  0.00    -0.014 A 
ATOM      2  C   UNL     1       9.992  14.766   1.242  1.00  0.00     0.028 A 
ATOM      3  C   UNL     1       8.809  16.855   1.502  1.00  0.00     0.013 A 
ATOM      4  C   UNL     1       9.742  14.794  -0.130  1.00  0.00     0.102 A 
ATOM      5  C   UNL     1       9.025  15.854  -0.686  1.00  0.00     0.130 A 
ATOM      6  C   UNL     1       8.558  16.885   0.131  1.00  0.00     0.048 A 
ENDROOT
BRANCH   1   7
ATOM      7  C   UNL     1       9.787  15.768   3.481  1.00  0.00     0.018 A 
ATOM      8  C   UNL     1       8.844  15.226   4.355  1.00  0.00     0.133 A 
ATOM      9  C   UNL     1       9.099  15.201   5.727  1.00  0.00     0.079 A 
ATOM     10  C   UNL     1      10.985  16.282   3.977  1.00  0.00     0.015 A 
ATOM     11  C   UNL     1      10.296  15.716   6.223  1.00  0.00     0.126 A 
ATOM     12  C   UNL     1      11.239  16.256   5.348  1.00  0.00     0.040 A 
ATOM     13  F   UNL     1       7.687  14.730   3.894  1.00  0.00    -0.206 F 
ATOM     14  F   UNL     1      10.542  15.693   7.539  1.00  0.00    -0.207 F 
ENDBRANCH   1   7
BRANCH   4  15
ATOM     15  C   UNL     1      10.237  13.708  -0.965  1.00  0.00     0.339 C 
ATOM     16  O   UNL     1      10.058  12.506  -0.753  1.00  0.00    -0.246 OA
BRANCH  15  17
ATOM     17  O   UNL     1      10.938  14.159  -2.040  1.00  0.00    -0.478 OA
ATOM     18  H   UNL     1      10.414  14.103  -2.867  1.00  0.00     0.297 HD
ENDBRANCH  15  17
ENDBRANCH   4  15
BRANCH   5  19
ATOM     19  O   UNL     1       8.768  15.900  -2.024  1.00  0.00    -0.507 OA
ATOM     20  H   UNL     1       8.725  16.830  -2.307  1.00  0.00     0.293 HD
ENDBRANCH   5  19
TORSDOF 4
ENDMDL
MODEL 9
REMARK VINA RESULT:    -4.122      8.533     10.745
REMARK INTER + INTRA:          -5.414
REMARK INTER:                  -4.545
REMARK INTRA:                  -0.869
REMARK UNBOUND:                -0.570
REMARK SMILES O=C(O)c1cc(-c2ccc(F)cc2F)ccc1O
REMARK SMILES IDX 6 1 5 2 15 3 4 4 17 5 16 6 7 7 13 8 12 9 8 10 10 11 9 12
REMARK SMILES IDX 14 13 11 14 2 15 1 16 3 17 18 19
REMARK H PARENT 3 18 18 20
ROOT
ATOM      1  C   UNL     1       8.770  14.205   3.042  1.00  0.00    -0.014 A 
ATOM      2  C   UNL     1       9.070  14.657   1.758  1.00  0.00     0.028 A 
ATOM      3  C   UNL     1       7.957  13.085   3.215  1.00  0.00     0.013 A 
ATOM      4  C   UNL     1       8.558  13.989   0.645  1.00  0.00     0.102 A 
ATOM      5  C   UNL     1       7.745  12.869   0.818  1.00  0.00     0.130 A 
ATOM      6  C   UNL     1       7.444  12.416   2.104  1.00  0.00     0.048 A 
ENDROOT
BRANCH   1   7
ATOM      7  C   UNL     1       9.300  14.898   4.197  1.00  0.00     0.018 A 
ATOM      8  C   UNL     1      10.339  14.333   4.937  1.00  0.00     0.133 A 
ATOM      9  C   UNL     1      10.847  15.004   6.050  1.00  0.00     0.079 A 
ATOM     10  C   UNL     1       8.771  16.134   4.568  1.00  0.00     0.015 A 
ATOM     11  C   UNL     1      10.317  16.240   6.421  1.00  0.00     0.126 A 
ATOM     12  C   UNL     1       9.279  16.805   5.679  1.00  0.00     0.040 A 
ATOM     13  F   UNL     1      10.857  13.145   4.596  1.00  0.00    -0.206 F 
ATOM     14  F   UNL     1      10.804  16.885   7.489  1.00  0.00    -0.207 F 
ENDBRANCH   1   7
BRANCH   4  15
ATOM     15  C   UNL     1       8.884  14.476  -0.688  1.00  0.00     0.339 C 
ATOM     16  O   UNL     1       8.497  15.543  -1.172  1.00  0.00    -0.246 OA
BRANCH  15  17
ATOM     17  O   UNL     1       9.685  13.616  -1.373  1.00  0.00    -0.478 OA
ATOM     18  H   UNL     1       9.535  13.669  -2.340  1.00  0.00     0.297 HD
ENDBRANCH  15  17
ENDBRANCH   4  15
BRANCH   5  19
ATOM     19  O   UNL     1       7.235  12.201  -0.255  1.00  0.00    -0.507 OA
ATOM     20  H   UNL     1       7.868  12.255  -0.992  1.00  0.00     0.293 HD
ENDBRANCH   5  19
TORSDOF 4
ENDMDL
