MODEL 1
REMARK VINA RESULT:    -6.511      0.000      0.000
REMARK INTER + INTRA:          -8.278
REMARK INTER:                  -7.653
REMARK INTRA:                  -0.625
REMARK UNBOUND:                -0.625
REMARK SMILES O=C(O)c1cc(-c2ccc(F)cc2F)ccc1O
REMARK SMILES IDX 6 1 5 2 15 3 4 4 17 5 16 6 7 7 13 8 12 9 8 10 10 11 9 12
REMARK SMILES IDX 14 13 11 14 2 15 1 16 3 17 18 19
REMARK H PARENT 3 18 18 20
ROOT
ATOM      1  C   UNL     1       0.911   3.705   6.096  1.00  0.00    -0.014 A 
ATOM      2  C   UNL     1       0.410   2.434   6.375  1.00  0.00     0.028 A 
ATOM      3  C   UNL     1       1.035   4.132   4.774  1.00  0.00     0.013 A 
ATOM      4  C   UNL     1       0.032   1.589   5.332  1.00  0.00     0.102 A 
ATOM      5  C   UNL     1       0.155   2.015   4.010  1.00  0.00     0.130 A 
ATOM      6  C   UNL     1       0.657   3.287   3.731  1.00  0.00     0.048 A 
ENDROOT
BRANCH   1   7
ATOM      7  C   UNL     1       1.305   4.582   7.178  1.00  0.00     0.018 A 
ATOM      8  C   UNL     1       0.465   4.759   8.278  1.00  0.00     0.133 A 
ATOM      9  C   UNL     1       0.849   5.605   9.318  1.00  0.00     0.079 A 
ATOM     10  C   UNL     1       2.528   5.250   7.120  1.00  0.00     0.015 A 
ATOM     11  C   UNL     1       2.071   6.274   9.259  1.00  0.00     0.126 A 
ATOM     12  C   UNL     1       2.911   6.096   8.160  1.00  0.00     0.040 A 
ATOM     13  F   UNL     1      -0.715   4.126   8.348  1.00  0.00    -0.206 F 
ATOM     14  F   UNL     1       2.440   7.087  10.258  1.00  0.00    -0.207 F 
ENDBRANCH   1   7
BRANCH   4  15
ATOM     15  C   UNL     1      -0.490   0.265   5.644  1.00  0.00     0.339 C 
ATOM     16  O   UNL     1      -0.102  -0.792   5.141  1.00  0.00    -0.246 OA
BRANCH  15  17
ATOM     17  O   UNL     1      -1.479   0.305   6.578  1.00  0.00    -0.478 OA
ATOM     18  H   UNL     1      -2.280  -0.175   6.282  1.00  0.00     0.297 HD
ENDBRANCH  15  17
ENDBRANCH   4  15
BRANCH   5  19
ATOM     19  O   UNL     1      -0.210   1.205   2.976  1.00  0.00    -0.507 OA
ATOM     20  H   UNL     1      -0.559   0.371   3.335  1.00  0.00     0.293 HD
ENDBRANCH   5  19
TORSDOF 4
ENDMDL
MODEL 2
REMARK VINA RESULT:    -6.475      1.743      3.240
REMARK INTER + INTRA:          -8.236
REMARK INTER:                  -7.679
REMARK INTRA:                  -0.557
REMARK UNBOUND:                -0.625
REMARK SMILES O=C(O)c1cc(-c2ccc(F)cc2F)ccc1O
REMARK SMILES IDX 6 1 5 2 15 3 4 4 17 5 16 6 7 7 13 8 12 9 8 10 10 11 9 12
REMARK SMILES IDX 14 13 11 14 2 15 1 16 3 17 18 19
REMARK H PARENT 3 18 18 20
ROOT
ATOM      1  C   UNL     1       1.161   3.671   6.052  1.00  0.00    -0.014 A 
ATOM      2  C   UNL     1       1.385   4.166   4.768  1.00  0.00     0.028 A 
ATOM      3  C   UNL     1       0.632   2.392   6.224  1.00  0.00     0.013 A 
ATOM      4  C   UNL     1       1.080   3.383   3.655  1.00  0.00     0.102 A 
ATOM      5  C   UNL     1       0.551   2.104   3.827  1.00  0.00     0.130 A 
ATOM      6  C   UNL     1       0.327   1.608   5.112  1.00  0.00     0.048 A 
ENDROOT
BRANCH   1   7
ATOM      7  C   UNL     1       1.476   4.484   7.207  1.00  0.00     0.018 A 
ATOM      8  C   UNL     1       2.677   5.193   7.258  1.00  0.00     0.133 A 
ATOM      9  C   UNL     1       2.977   5.975   8.374  1.00  0.00     0.079 A 
ATOM     10  C   UNL     1       0.576   4.560   8.269  1.00  0.00     0.015 A 
ATOM     11  C   UNL     1       2.077   6.049   9.436  1.00  0.00     0.126 A 
ATOM     12  C   UNL     1       0.876   5.342   9.383  1.00  0.00     0.040 A 
ATOM     13  F   UNL     1       3.555   5.129   6.247  1.00  0.00    -0.206 F 
ATOM     14  F   UNL     1       2.364   6.800  10.508  1.00  0.00    -0.207 F 
ENDBRANCH   1   7
BRANCH   4  15
ATOM     15  C   UNL     1       1.322   3.918   2.322  1.00  0.00     0.339 C 
ATOM     16  O   UNL     1       0.483   3.997   1.422  1.00  0.00    -0.246 OA
BRANCH  15  17
ATOM     17  O   UNL     1       2.606   4.338   2.157  1.00  0.00    -0.478 OA
ATOM     18  H   UNL     1       2.703   4.914   1.369  1.00  0.00     0.297 HD
ENDBRANCH  15  17
ENDBRANCH   4  15
BRANCH   5  19
ATOM     19  O   UNL     1       0.247   1.322   2.752  1.00  0.00    -0.507 OA
ATOM     20  H   UNL     1       0.818   1.572   2.006  1.00  0.00     0.293 HD
ENDBRANCH   5  19
TORSDOF 4
ENDMDL
MODEL 3
REMARK VINA RESULT:    -6.472      1.130      1.623
REMARK INTER + INTRA:          -8.232
REMARK INTER:                  -7.662
REMARK INTRA:                  -0.570
REMARK UNBOUND:                -0.625
REMARK SMILES O=C(O)c1cc(-c2ccc(F)cc2F)ccc1O
REMARK SMILES IDX 6 1 5 2 15 3 4 4 17 5 16 6 7 7 13 8 12 9 8 10 10 11 9 12
REMARK SMILES IDX 14 13 11 14 2 15 1 16 3 17 18 19
REMARK H PARENT 3 18 18 20
ROOT
ATOM      1  C   UNL     1       1.029   3.719   6.026  1.00  0.00    -0.014 A 
ATOM      2  C   UNL     1       0.469   2.470   6.289  1.00  0.00     0.028 A 
ATOM      3  C   UNL     1       1.228   4.131   4.709  1.00  0.00     0.013 A 
ATOM      4  C   UNL     1       0.107   1.631   5.234  1.00  0.00     0.102 A 
ATOM      5  C   UNL     1       0.306   2.043   3.917  1.00  0.00     0.130 A 
ATOM      6  C   UNL     1       0.867   3.294   3.654  1.00  0.00     0.048 A 
ENDROOT
BRANCH   1   7
ATOM      7  C   UNL     1       1.406   4.589   7.120  1.00  0.00     0.018 A 
ATOM      8  C   UNL     1       2.644   5.232   7.109  1.00  0.00     0.133 A 
ATOM      9  C   UNL     1       3.003   6.070   8.165  1.00  0.00     0.079 A 
ATOM     10  C   UNL     1       0.528   4.783   8.186  1.00  0.00     0.015 A 
ATOM     11  C   UNL     1       2.125   6.263   9.231  1.00  0.00     0.126 A 
ATOM     12  C   UNL     1       0.888   5.620   9.241  1.00  0.00     0.040 A 
ATOM     13  F   UNL     1       3.500   5.054   6.093  1.00  0.00    -0.206 F 
ATOM     14  F   UNL     1       2.469   7.067  10.246  1.00  0.00    -0.207 F 
ENDBRANCH   1   7
BRANCH   4  15
ATOM     15  C   UNL     1      -0.477   0.330   5.530  1.00  0.00     0.339 C 
ATOM     16  O   UNL     1      -0.060  -0.752   5.109  1.00  0.00    -0.246 OA
BRANCH  15  17
ATOM     17  O   UNL     1      -1.563   0.423   6.344  1.00  0.00    -0.478 OA
ATOM     18  H   UNL     1      -1.489  -0.172   7.120  1.00  0.00     0.297 HD
ENDBRANCH  15  17
ENDBRANCH   4  15
BRANCH   5  19
ATOM     19  O   UNL     1      -0.041   1.239   2.872  1.00  0.00    -0.507 OA
ATOM     20  H   UNL     1      -0.839   1.598   2.447  1.00  0.00     0.293 HD
ENDBRANCH   5  19
TORSDOF 4
ENDMDL
MODEL 4
REMARK VINA RESULT:    -6.450      1.362      2.809
REMARK INTER + INTRA:          -8.206
REMARK INTER:                  -7.624
REMARK INTRA:                  -0.582
REMARK UNBOUND:                -0.625
REMARK SMILES O=C(O)c1cc(-c2ccc(F)cc2F)ccc1O
REMARK SMILES IDX 6 1 5 2 15 3 4 4 17 5 16 6 7 7 13 8 12 9 8 10 10 11 9 12
REMARK SMILES IDX 14 13 11 14 2 15 1 16 3 17 18 19
REMARK H PARENT 3 18 18 20
ROOT
ATOM      1  C   UNL     1       1.125   3.669   6.045  1.00  0.00    -0.014 A 
ATOM      2  C   UNL     1       1.358   4.164   4.763  1.00  0.00     0.028 A 
ATOM      3  C   UNL     1       0.591   2.391   6.212  1.00  0.00     0.013 A 
ATOM      4  C   UNL     1       1.057   3.383   3.647  1.00  0.00     0.102 A 
ATOM      5  C   UNL     1       0.523   2.105   3.814  1.00  0.00     0.130 A 
ATOM      6  C   UNL     1       0.290   1.609   5.098  1.00  0.00     0.048 A 
ENDROOT
BRANCH   1   7
ATOM      7  C   UNL     1       1.435   4.480   7.202  1.00  0.00     0.018 A 
ATOM      8  C   UNL     1       0.510   4.605   8.239  1.00  0.00     0.133 A 
ATOM      9  C   UNL     1       0.813   5.388   9.353  1.00  0.00     0.079 A 
ATOM     10  C   UNL     1       2.663   5.136   7.281  1.00  0.00     0.015 A 
ATOM     11  C   UNL     1       2.040   6.044   9.431  1.00  0.00     0.126 A 
ATOM     12  C   UNL     1       2.966   5.918   8.395  1.00  0.00     0.040 A 
ATOM     13  F   UNL     1      -0.676   3.983   8.178  1.00  0.00    -0.206 F 
ATOM     14  F   UNL     1       2.332   6.796  10.500  1.00  0.00    -0.207 F 
ENDBRANCH   1   7
BRANCH   4  15
ATOM     15  C   UNL     1       1.308   3.918   2.316  1.00  0.00     0.339 C 
ATOM     16  O   UNL     1       0.473   4.007   1.413  1.00  0.00    -0.246 OA
BRANCH  15  17
ATOM     17  O   UNL     1       2.596   4.328   2.157  1.00  0.00    -0.478 OA
ATOM     18  H   UNL     1       2.666   5.078   1.529  1.00  0.00     0.297 HD
ENDBRANCH  15  17
ENDBRANCH   4  15
BRANCH   5  19
ATOM     19  O   UNL     1       0.223   1.325   2.737  1.00  0.00    -0.507 OA
ATOM     20  H   UNL     1      -0.710   1.460   2.498  1.00  0.00     0.293 HD
ENDBRANCH   5  19
TORSDOF 4
ENDMDL
MODEL 5
REMARK VINA RESULT:    -5.174      3.946      6.192
REMARK INTER + INTRA:          -6.706
REMARK INTER:                  -5.620
REMARK INTRA:                  -1.086
REMARK UNBOUND:                -0.625
REMARK SMILES O=C(O)c1cc(-c2ccc(F)cc2F)ccc1O
REMARK SMILES IDX 6 1 5 2 15 3 4 4 17 5 16 6 7 7 13 8 12 9 8 10 10 11 9 12
REMARK SMILES IDX 14 13 11 14 2 15 1 16 3 17 18 19
REMARK H PARENT 3 18 18 20
ROOT
ATOM      1  C   UNL     1       1.373   4.657   7.928  1.00  0.00    -0.014 A 
ATOM      2  C   UNL     1       1.863   4.422   9.212  1.00  0.00     0.028 A 
ATOM      3  C   UNL     1       1.269   5.963   7.449  1.00  0.00     0.013 A 
ATOM      4  C   UNL     1       2.249   5.493  10.019  1.00  0.00     0.102 A 
ATOM      5  C   UNL     1       2.145   6.799   9.540  1.00  0.00     0.130 A 
ATOM      6  C   UNL     1       1.655   7.034   8.255  1.00  0.00     0.048 A 
ENDROOT
BRANCH   1   7
ATOM      7  C   UNL     1       0.971   3.547   7.091  1.00  0.00     0.018 A 
ATOM      8  C   UNL     1      -0.349   3.096   7.112  1.00  0.00     0.133 A 
ATOM      9  C   UNL     1      -0.732   2.026   6.303  1.00  0.00     0.079 A 
ATOM     10  C   UNL     1       1.907   2.928   6.262  1.00  0.00     0.015 A 
ATOM     11  C   UNL     1       0.203   1.407   5.475  1.00  0.00     0.126 A 
ATOM     12  C   UNL     1       1.523   1.859   5.455  1.00  0.00     0.040 A 
ATOM     13  F   UNL     1      -1.260   3.678   7.904  1.00  0.00    -0.206 F 
ATOM     14  F   UNL     1      -0.163   0.379   4.699  1.00  0.00    -0.207 F 
ENDBRANCH   1   7
BRANCH   4  15
ATOM     15  C   UNL     1       2.758   5.226  11.357  1.00  0.00     0.339 C 
ATOM     16  O   UNL     1       3.164   6.080  12.149  1.00  0.00    -0.246 OA
BRANCH  15  17
ATOM     17  O   UNL     1       2.741   3.901  11.663  1.00  0.00    -0.478 OA
ATOM     18  H   UNL     1       1.951   3.451  11.295  1.00  0.00     0.297 HD
ENDBRANCH  15  17
ENDBRANCH   4  15
BRANCH   5  19
ATOM     19  O   UNL     1       2.517   7.859  10.312  1.00  0.00    -0.507 OA
ATOM     20  H   UNL     1       2.150   8.675   9.929  1.00  0.00     0.293 HD
ENDBRANCH   5  19
TORSDOF 4
ENDMDL
MODEL 6
REMARK VINA RESULT:    -5.127      4.552      6.832
REMARK INTER + INTRA:          -6.651
REMARK INTER:                  -5.565
REMARK INTRA:                  -1.086
REMARK UNBOUND:                -0.625
REMARK SMILES O=C(O)c1cc(-c2ccc(F)cc2F)ccc1O
REMARK SMILES IDX 6 1 5 2 15 3 4 4 17 5 16 6 7 7 13 8 12 9 8 10 10 11 9 12
REMARK SMILES IDX 14 13 11 14 2 15 1 16 3 17 18 19
REMARK H PARENT 3 18 18 20
ROOT
ATOM      1  C   UNL     1       1.813   5.214   7.552  1.00  0.00    -0.014 A 
ATOM      2  C   UNL     1       1.746   6.595   7.732  1.00  0.00     0.028 A 
ATOM      3  C   UNL     1       2.164   4.388   8.620  1.00  0.00     0.013 A 
ATOM      4  C   UNL     1       2.029   7.152   8.979  1.00  0.00     0.102 A 
ATOM      5  C   UNL     1       2.380   6.326  10.047  1.00  0.00     0.130 A 
ATOM      6  C   UNL     1       2.447   4.943   9.867  1.00  0.00     0.048 A 
ENDROOT
BRANCH   1   7
ATOM      7  C   UNL     1       1.521   4.637   6.258  1.00  0.00     0.018 A 
ATOM      8  C   UNL     1       2.546   4.434   5.334  1.00  0.00     0.133 A 
ATOM      9  C   UNL     1       2.260   3.877   4.087  1.00  0.00     0.079 A 
ATOM     10  C   UNL     1       0.211   4.283   5.936  1.00  0.00     0.015 A 
ATOM     11  C   UNL     1       0.950   3.524   3.765  1.00  0.00     0.126 A 
ATOM     12  C   UNL     1      -0.075   3.726   4.690  1.00  0.00     0.040 A 
ATOM     13  F   UNL     1       3.810   4.771   5.626  1.00  0.00    -0.206 F 
ATOM     14  F   UNL     1       0.674   2.989   2.568  1.00  0.00    -0.207 F 
ENDBRANCH   1   7
BRANCH   4  15
ATOM     15  C   UNL     1       1.953   8.596   9.147  1.00  0.00     0.339 C 
ATOM     16  O   UNL     1       2.064   9.198  10.218  1.00  0.00    -0.246 OA
BRANCH  15  17
ATOM     17  O   UNL     1       1.742   9.244   7.969  1.00  0.00    -0.478 OA
ATOM     18  H   UNL     1       1.754   8.628   7.206  1.00  0.00     0.297 HD
ENDBRANCH  15  17
ENDBRANCH   4  15
BRANCH   5  19
ATOM     19  O   UNL     1       2.660   6.849  11.275  1.00  0.00    -0.507 OA
ATOM     20  H   UNL     1       2.156   7.673  11.391  1.00  0.00     0.293 HD
ENDBRANCH   5  19
TORSDOF 4
ENDMDL
MODEL 7
REMARK VINA RESULT:    -5.051      4.295      6.627
REMARK INTER + INTRA:          -6.562
REMARK INTER:                  -5.483
REMARK INTRA:                  -1.079
REMARK UNBOUND:                -0.625
REMARK SMILES O=C(O)c1cc(-c2ccc(F)cc2F)ccc1O
REMARK SMILES IDX 6 1 5 2 15 3 4 4 17 5 16 6 7 7 13 8 12 9 8 10 10 11 9 12
REMARK SMILES IDX 14 13 11 14 2 15 1 16 3 17 18 19
REMARK H PARENT 3 18 18 20
ROOT
ATOM      1  C   UNL     1       1.492   5.027   8.172  1.00  0.00    -0.014 A 
ATOM      2  C   UNL     1       1.387   6.399   7.945  1.00  0.00     0.028 A 
ATOM      3  C   UNL     1       1.998   4.558   9.385  1.00  0.00     0.013 A 
ATOM      4  C   UNL     1       1.787   7.302   8.930  1.00  0.00     0.102 A 
ATOM      5  C   UNL     1       2.293   6.833  10.142  1.00  0.00     0.130 A 
ATOM      6  C   UNL     1       2.399   5.460  10.370  1.00  0.00     0.048 A 
ENDROOT
BRANCH   1   7
ATOM      7  C   UNL     1       1.078   4.090   7.151  1.00  0.00     0.018 A 
ATOM      8  C   UNL     1      -0.212   3.559   7.168  1.00  0.00     0.133 A 
ATOM      9  C   UNL     1      -0.607   2.655   6.182  1.00  0.00     0.079 A 
ATOM     10  C   UNL     1       1.972   3.718   6.147  1.00  0.00     0.015 A 
ATOM     11  C   UNL     1       0.287   2.283   5.179  1.00  0.00     0.126 A 
ATOM     12  C   UNL     1       1.577   2.814   5.161  1.00  0.00     0.040 A 
ATOM     13  F   UNL     1      -1.082   3.904   8.128  1.00  0.00    -0.206 F 
ATOM     14  F   UNL     1      -0.091   1.415   4.231  1.00  0.00    -0.207 F 
ENDBRANCH   1   7
BRANCH   4  15
ATOM     15  C   UNL     1       1.669   8.731   8.673  1.00  0.00     0.339 C 
ATOM     16  O   UNL     1       2.071   9.626   9.420  1.00  0.00    -0.246 OA
BRANCH  15  17
ATOM     17  O   UNL     1       1.053   8.995   7.489  1.00  0.00    -0.478 OA
ATOM     18  H   UNL     1       0.809   8.174   7.013  1.00  0.00     0.297 HD
ENDBRANCH  15  17
ENDBRANCH   4  15
BRANCH   5  19
ATOM     19  O   UNL     1       2.689   7.699  11.118  1.00  0.00    -0.507 OA
ATOM     20  H   UNL     1       3.474   8.186  10.810  1.00  0.00     0.293 HD
ENDBRANCH   5  19
TORSDOF 4
ENDMDL
MODEL 8
REMARK VINA RESULT:    -5.047      4.102      6.378
REMARK INTER + INTRA:          -6.557
REMARK INTER:                  -5.488
REMARK INTRA:                  -1.069
REMARK UNBOUND:                -0.625
REMARK SMILES O=C(O)c1cc(-c2ccc(F)cc2F)ccc1O
REMARK SMILES IDX 6 1 5 2 15 3 4 4 17 5 16 6 7 7 13 8 12 9 8 10 10 11 9 12
REMARK SMILES IDX 14 13 11 14 2 15 1 16 3 17 18 19
REMARK H PARENT 3 18 18 20
ROOT
ATOM      1  C   UNL     1       1.786   5.237   7.927  1.00  0.00    -0.014 A 
ATOM      2  C   UNL     1       2.179   4.568   9.086  1.00  0.00     0.028 A 
ATOM      3  C   UNL     1       1.692   6.629   7.923  1.00  0.00     0.013 A 
ATOM      4  C   UNL     1       2.476   5.291  10.242  1.00  0.00     0.102 A 
ATOM      5  C   UNL     1       2.382   6.682  10.237  1.00  0.00     0.130 A 
ATOM      6  C   UNL     1       1.989   7.352   9.077  1.00  0.00     0.048 A 
ENDROOT
BRANCH   1   7
ATOM      7  C   UNL     1       1.476   4.488   6.728  1.00  0.00     0.018 A 
ATOM      8  C   UNL     1       2.442   4.325   5.734  1.00  0.00     0.133 A 
ATOM      9  C   UNL     1       2.139   3.602   4.580  1.00  0.00     0.079 A 
ATOM     10  C   UNL     1       0.209   3.929   6.567  1.00  0.00     0.015 A 
ATOM     11  C   UNL     1       0.871   3.044   4.419  1.00  0.00     0.126 A 
ATOM     12  C   UNL     1      -0.093   3.207   5.414  1.00  0.00     0.040 A 
ATOM     13  F   UNL     1       3.664   4.858   5.872  1.00  0.00    -0.206 F 
ATOM     14  F   UNL     1       0.579   2.350   3.312  1.00  0.00    -0.207 F 
ENDBRANCH   1   7
BRANCH   4  15
ATOM     15  C   UNL     1       2.884   4.573  11.442  1.00  0.00     0.339 C 
ATOM     16  O   UNL     1       2.924   5.049  12.579  1.00  0.00    -0.246 OA
BRANCH  15  17
ATOM     17  O   UNL     1       3.229   3.283  11.182  1.00  0.00    -0.478 OA
ATOM     18  H   UNL     1       2.640   2.876  10.511  1.00  0.00     0.297 HD
ENDBRANCH  15  17
ENDBRANCH   4  15
BRANCH   5  19
ATOM     19  O   UNL     1       2.669   7.407  11.356  1.00  0.00    -0.507 OA
ATOM     20  H   UNL     1       2.572   6.835  12.138  1.00  0.00     0.293 HD
ENDBRANCH   5  19
TORSDOF 4
ENDMDL
MODEL 9
REMARK VINA RESULT:    -4.093      5.788      8.213
REMARK INTER + INTRA:          -5.436
REMARK INTER:                  -4.853
REMARK INTRA:                  -0.584
REMARK UNBOUND:                -0.625
REMARK SMILES O=C(O)c1cc(-c2ccc(F)cc2F)ccc1O
REMARK SMILES IDX 6 1 5 2 15 3 4 4 17 5 16 6 7 7 13 8 12 9 8 10 10 11 9 12
REMARK SMILES IDX 14 13 11 14 2 15 1 16 3 17 18 19
REMARK H PARENT 3 18 18 20
ROOT
ATOM      1  C   UNL     1       3.147   5.158  11.541  1.00  0.00    -0.014 A 
ATOM      2  C   UNL     1       2.765   6.007  12.579  1.00  0.00     0.028 A 
ATOM      3  C   UNL     1       4.108   4.173  11.764  1.00  0.00     0.013 A 
ATOM      4  C   UNL     1       3.345   5.871  13.840  1.00  0.00     0.102 A 
ATOM      5  C   UNL     1       4.307   4.886  14.063  1.00  0.00     0.130 A 
ATOM      6  C   UNL     1       4.689   4.036  13.024  1.00  0.00     0.048 A 
ENDROOT
BRANCH   1   7
ATOM      7  C   UNL     1       2.546   5.299  10.231  1.00  0.00     0.018 A 
ATOM      8  C   UNL     1       2.254   6.567   9.728  1.00  0.00     0.133 A 
ATOM      9  C   UNL     1       1.675   6.698   8.465  1.00  0.00     0.079 A 
ATOM     10  C   UNL     1       2.262   4.164   9.473  1.00  0.00     0.015 A 
ATOM     11  C   UNL     1       1.390   5.564   7.707  1.00  0.00     0.126 A 
ATOM     12  C   UNL     1       1.684   4.296   8.211  1.00  0.00     0.040 A 
ATOM     13  F   UNL     1       2.519   7.668  10.446  1.00  0.00    -0.206 F 
ATOM     14  F   UNL     1       0.834   5.689   6.495  1.00  0.00    -0.207 F 
ENDBRANCH   1   7
BRANCH   4  15
ATOM     15  C   UNL     1       2.932   6.768  14.912  1.00  0.00     0.339 C 
ATOM     16  O   UNL     1       3.343   6.728  16.074  1.00  0.00    -0.246 OA
BRANCH  15  17
ATOM     17  O   UNL     1       2.020   7.688  14.495  1.00  0.00    -0.478 OA
ATOM     18  H   UNL     1       1.101   7.397  14.674  1.00  0.00     0.297 HD
ENDBRANCH  15  17
ENDBRANCH   4  15
BRANCH   5  19
ATOM     19  O   UNL     1       4.885   4.736  15.289  1.00  0.00    -0.507 OA
ATOM     20  H   UNL     1       5.734   5.211  15.299  1.00  0.00     0.293 HD
ENDBRANCH   5  19
TORSDOF 4
ENDMDL
