MODEL 1
REMARK VINA RESULT:    -5.240      0.000      0.000
REMARK INTER + INTRA:          -7.232
REMARK INTER:                  -6.465
REMARK INTRA:                  -0.767
REMARK UNBOUND:                -0.767
REMARK SMILES Cc1ccc(C(=O)c2cc(O)c(O)c([N+](=O)[O-])c2)cc1
REMARK SMILES IDX 8 1 18 2 9 3 14 4 10 5 12 6 6 7 7 8 5 9 4 10 19 11 3 12
REMARK SMILES IDX 20 13 2 14 1 15 15 16 17 17 16 18 11 19 13 21
REMARK H PARENT 11 20 13 22
ROOT
ATOM      1  C   UNL     1       1.284   2.774   5.949  1.00  0.00     0.033 A 
ATOM      2  C   UNL     1       1.618   3.515   4.840  1.00  0.00     0.102 A 
ATOM      3  C   UNL     1       0.477   1.662   5.890  1.00  0.00     0.063 A 
ATOM      4  C   UNL     1       1.117   3.121   3.599  1.00  0.00     0.315 A 
ATOM      5  C   UNL     1      -0.025   1.269   4.649  1.00  0.00     0.165 A 
ATOM      6  C   UNL     1       0.296   1.998   3.503  1.00  0.00     0.237 A 
ENDROOT
BRANCH   1   7
ATOM      7  C   UNL     1       1.820   3.196   7.279  1.00  0.00     0.193 C 
ATOM      8  O   UNL     1       2.288   2.310   8.010  1.00  0.00    -0.289 OA
BRANCH   7   9
ATOM      9  C   UNL     1       1.807   4.581   7.721  1.00  0.00     0.023 A 
ATOM     10  C   UNL     1       0.773   5.043   8.535  1.00  0.00     0.012 A 
ATOM     11  C   UNL     1       2.827   5.447   7.331  1.00  0.00     0.012 A 
ATOM     12  C   UNL     1       0.760   6.372   8.959  1.00  0.00     0.004 A 
ATOM     13  C   UNL     1       2.815   6.777   7.755  1.00  0.00     0.004 A 
ATOM     14  C   UNL     1       1.782   7.239   8.570  1.00  0.00    -0.051 A 
ATOM     15  C   UNL     1       1.767   8.659   9.022  1.00  0.00     0.044 C 
ENDBRANCH   7   9
ENDBRANCH   1   7
BRANCH   4  16
ATOM     16  N   UNL     1       1.454   3.876   2.443  1.00  0.00     0.066 N 
ATOM     17  O   UNL     1       2.594   4.396   2.370  1.00  0.00    -0.258 OA
ATOM     18  O   UNL     1       0.604   4.000   1.531  1.00  0.00    -0.258 OA
ENDBRANCH   4  16
BRANCH   5  19
ATOM     19  O   UNL     1      -0.826   0.169   4.570  1.00  0.00    -0.504 OA
ATOM     20  H   UNL     1      -0.781  -0.203   3.674  1.00  0.00     0.293 HD
ENDBRANCH   5  19
BRANCH   6  21
ATOM     21  O   UNL     1      -0.201   1.602   2.295  1.00  0.00    -0.500 OA
ATOM     22  H   UNL     1      -0.855   2.247   1.984  1.00  0.00     0.294 HD
ENDBRANCH   6  21
TORSDOF 5
ENDMDL
MODEL 2
REMARK VINA RESULT:    -5.200      2.068      3.517
REMARK INTER + INTRA:          -7.183
REMARK INTER:                  -6.449
REMARK INTRA:                  -0.734
REMARK UNBOUND:                -0.767
REMARK SMILES Cc1ccc(C(=O)c2cc(O)c(O)c([N+](=O)[O-])c2)cc1
REMARK SMILES IDX 8 1 18 2 9 3 14 4 10 5 12 6 6 7 7 8 5 9 4 10 19 11 3 12
REMARK SMILES IDX 20 13 2 14 1 15 15 16 17 17 16 18 11 19 13 21
REMARK H PARENT 11 20 13 22
ROOT
ATOM      1  C   UNL     1       0.585   3.981   5.278  1.00  0.00     0.033 A 
ATOM      2  C   UNL     1       0.076   2.831   5.835  1.00  0.00     0.102 A 
ATOM      3  C   UNL     1       0.972   4.064   3.962  1.00  0.00     0.063 A 
ATOM      4  C   UNL     1      -0.053   1.700   5.030  1.00  0.00     0.315 A 
ATOM      5  C   UNL     1       0.844   2.933   3.156  1.00  0.00     0.165 A 
ATOM      6  C   UNL     1       0.331   1.750   3.690  1.00  0.00     0.237 A 
ENDROOT
BRANCH   1   7
ATOM      7  C   UNL     1       0.723   5.193   6.141  1.00  0.00     0.193 C 
ATOM      8  O   UNL     1       0.341   6.274   5.669  1.00  0.00    -0.289 OA
BRANCH   7   9
ATOM      9  C   UNL     1       1.279   5.134   7.483  1.00  0.00     0.023 A 
ATOM     10  C   UNL     1       2.613   5.480   7.702  1.00  0.00     0.012 A 
ATOM     11  C   UNL     1       0.478   4.733   8.553  1.00  0.00     0.012 A 
ATOM     12  C   UNL     1       3.145   5.424   8.990  1.00  0.00     0.004 A 
ATOM     13  C   UNL     1       1.011   4.678   9.842  1.00  0.00     0.004 A 
ATOM     14  C   UNL     1       2.345   5.023  10.060  1.00  0.00    -0.051 A 
ATOM     15  C   UNL     1       2.915   4.962  11.436  1.00  0.00     0.044 C 
ENDBRANCH   7   9
ENDBRANCH   1   7
BRANCH   4  16
ATOM     16  N   UNL     1      -0.577   0.503   5.592  1.00  0.00     0.066 N 
ATOM     17  O   UNL     1      -1.471   0.587   6.468  1.00  0.00    -0.258 OA
ATOM     18  O   UNL     1      -0.132  -0.598   5.194  1.00  0.00    -0.258 OA
ENDBRANCH   4  16
BRANCH   5  19
ATOM     19  O   UNL     1       1.222   2.997   1.848  1.00  0.00    -0.504 OA
ATOM     20  H   UNL     1       2.190   2.941   1.786  1.00  0.00     0.293 HD
ENDBRANCH   5  19
BRANCH   6  21
ATOM     21  O   UNL     1       0.209   0.650   2.891  1.00  0.00    -0.500 OA
ATOM     22  H   UNL     1       1.081   0.399   2.548  1.00  0.00     0.294 HD
ENDBRANCH   6  21
TORSDOF 5
ENDMDL
MODEL 3
REMARK VINA RESULT:    -4.323      3.696      6.609
REMARK INTER + INTRA:          -6.101
REMARK INTER:                  -5.188
REMARK INTRA:                  -0.913
REMARK UNBOUND:                -0.767
REMARK SMILES Cc1ccc(C(=O)c2cc(O)c(O)c([N+](=O)[O-])c2)cc1
REMARK SMILES IDX 8 1 18 2 9 3 14 4 10 5 12 6 6 7 7 8 5 9 4 10 19 11 3 12
REMARK SMILES IDX 20 13 2 14 1 15 15 16 17 17 16 18 11 19 13 21
REMARK H PARENT 11 20 13 22
ROOT
ATOM      1  C   UNL     1       1.113   5.034   8.759  1.00  0.00     0.033 A 
ATOM      2  C   UNL     1       1.225   6.393   8.578  1.00  0.00     0.102 A 
ATOM      3  C   UNL     1       1.643   4.379   9.845  1.00  0.00     0.063 A 
ATOM      4  C   UNL     1       1.905   7.140   9.540  1.00  0.00     0.315 A 
ATOM      5  C   UNL     1       2.325   5.126  10.807  1.00  0.00     0.165 A 
ATOM      6  C   UNL     1       2.455   6.507  10.654  1.00  0.00     0.237 A 
ENDROOT
BRANCH   1   7
ATOM      7  C   UNL     1       0.385   4.234   7.728  1.00  0.00     0.193 C 
ATOM      8  O   UNL     1      -0.585   3.561   8.111  1.00  0.00    -0.289 OA
BRANCH   7   9
ATOM      9  C   UNL     1       0.774   4.227   6.328  1.00  0.00     0.023 A 
ATOM     10  C   UNL     1      -0.202   4.278   5.332  1.00  0.00     0.012 A 
ATOM     11  C   UNL     1       2.123   4.170   5.979  1.00  0.00     0.012 A 
ATOM     12  C   UNL     1       0.173   4.271   3.988  1.00  0.00     0.004 A 
ATOM     13  C   UNL     1       2.498   4.163   4.635  1.00  0.00     0.004 A 
ATOM     14  C   UNL     1       1.523   4.214   3.639  1.00  0.00    -0.051 A 
ATOM     15  C   UNL     1       1.922   4.206   2.203  1.00  0.00     0.044 C 
ENDBRANCH   7   9
ENDBRANCH   1   7
BRANCH   4  16
ATOM     16  N   UNL     1       2.028   8.546   9.368  1.00  0.00     0.066 N 
ATOM     17  O   UNL     1       2.076   9.012   8.204  1.00  0.00    -0.258 OA
ATOM     18  O   UNL     1       2.085   9.278  10.383  1.00  0.00    -0.258 OA
ENDBRANCH   4  16
BRANCH   5  19
ATOM     19  O   UNL     1       2.857   4.494  11.890  1.00  0.00    -0.504 OA
ATOM     20  H   UNL     1       2.960   5.128  12.619  1.00  0.00     0.293 HD
ENDBRANCH   5  19
BRANCH   6  21
ATOM     21  O   UNL     1       3.123   7.226  11.602  1.00  0.00    -0.500 OA
ATOM     22  H   UNL     1       4.076   7.197  11.423  1.00  0.00     0.294 HD
ENDBRANCH   6  21
TORSDOF 5
ENDMDL
MODEL 4
REMARK VINA RESULT:    -4.300      3.647      7.166
REMARK INTER + INTRA:          -6.073
REMARK INTER:                  -5.148
REMARK INTRA:                  -0.925
REMARK UNBOUND:                -0.767
REMARK SMILES Cc1ccc(C(=O)c2cc(O)c(O)c([N+](=O)[O-])c2)cc1
REMARK SMILES IDX 8 1 18 2 9 3 14 4 10 5 12 6 6 7 7 8 5 9 4 10 19 11 3 12
REMARK SMILES IDX 20 13 2 14 1 15 15 16 17 17 16 18 11 19 13 21
REMARK H PARENT 11 20 13 22
ROOT
ATOM      1  C   UNL     1       2.405   5.685   7.904  1.00  0.00     0.033 A 
ATOM      2  C   UNL     1       2.649   5.070   9.110  1.00  0.00     0.102 A 
ATOM      3  C   UNL     1       2.153   7.031   7.790  1.00  0.00     0.063 A 
ATOM      4  C   UNL     1       2.641   5.847  10.268  1.00  0.00     0.315 A 
ATOM      5  C   UNL     1       2.144   7.809   8.948  1.00  0.00     0.165 A 
ATOM      6  C   UNL     1       2.389   7.216  10.188  1.00  0.00     0.237 A 
ENDROOT
BRANCH   1   7
ATOM      7  C   UNL     1       2.413   4.852   6.663  1.00  0.00     0.193 C 
ATOM      8  O   UNL     1       3.196   5.185   5.760  1.00  0.00    -0.289 OA
BRANCH   7   9
ATOM      9  C   UNL     1       1.550   3.694   6.495  1.00  0.00     0.023 A 
ATOM     10  C   UNL     1       0.211   3.760   6.881  1.00  0.00     0.012 A 
ATOM     11  C   UNL     1       2.060   2.517   5.948  1.00  0.00     0.012 A 
ATOM     12  C   UNL     1      -0.617   2.650   6.720  1.00  0.00     0.004 A 
ATOM     13  C   UNL     1       1.232   1.406   5.786  1.00  0.00     0.004 A 
ATOM     14  C   UNL     1      -0.107   1.472   6.172  1.00  0.00    -0.051 A 
ATOM     15  C   UNL     1      -0.992   0.285   6.002  1.00  0.00     0.044 C 
ENDBRANCH   7   9
ENDBRANCH   1   7
BRANCH   4  16
ATOM     16  N   UNL     1       2.892   5.226  11.522  1.00  0.00     0.066 N 
ATOM     17  O   UNL     1       2.541   4.033  11.688  1.00  0.00    -0.258 OA
ATOM     18  O   UNL     1       3.456   5.888  12.424  1.00  0.00    -0.258 OA
ENDBRANCH   4  16
BRANCH   5  19
ATOM     19  O   UNL     1       1.897   9.145   8.854  1.00  0.00    -0.504 OA
ATOM     20  H   UNL     1       1.274   9.311   8.128  1.00  0.00     0.293 HD
ENDBRANCH   5  19
BRANCH   6  21
ATOM     21  O   UNL     1       2.378   7.987  11.314  1.00  0.00    -0.500 OA
ATOM     22  H   UNL     1       2.917   8.781  11.170  1.00  0.00     0.294 HD
ENDBRANCH   6  21
TORSDOF 5
ENDMDL
MODEL 5
REMARK VINA RESULT:    -4.294      4.009      7.268
REMARK INTER + INTRA:          -6.065
REMARK INTER:                  -5.372
REMARK INTRA:                  -0.693
REMARK UNBOUND:                -0.767
REMARK SMILES Cc1ccc(C(=O)c2cc(O)c(O)c([N+](=O)[O-])c2)cc1
REMARK SMILES IDX 8 1 18 2 9 3 14 4 10 5 12 6 6 7 7 8 5 9 4 10 19 11 3 12
REMARK SMILES IDX 20 13 2 14 1 15 15 16 17 17 16 18 11 19 13 21
REMARK H PARENT 11 20 13 22
ROOT
ATOM      1  C   UNL     1       1.912   5.528   8.779  1.00  0.00     0.033 A 
ATOM      2  C   UNL     1       2.011   6.830   9.211  1.00  0.00     0.102 A 
ATOM      3  C   UNL     1       2.236   4.452   9.570  1.00  0.00     0.063 A 
ATOM      4  C   UNL     1       2.459   7.069  10.510  1.00  0.00     0.315 A 
ATOM      5  C   UNL     1       2.685   4.691  10.869  1.00  0.00     0.165 A 
ATOM      6  C   UNL     1       2.796   6.000  11.340  1.00  0.00     0.237 A 
ENDROOT
BRANCH   1   7
ATOM      7  C   UNL     1       1.432   5.272   7.387  1.00  0.00     0.193 C 
ATOM      8  O   UNL     1       1.502   6.210   6.579  1.00  0.00    -0.289 OA
BRANCH   7   9
ATOM      9  C   UNL     1       0.900   3.984   6.970  1.00  0.00     0.023 A 
ATOM     10  C   UNL     1       1.735   3.052   6.352  1.00  0.00     0.012 A 
ATOM     11  C   UNL     1      -0.443   3.680   7.189  1.00  0.00     0.012 A 
ATOM     12  C   UNL     1       1.225   1.817   5.953  1.00  0.00     0.004 A 
ATOM     13  C   UNL     1      -0.954   2.444   6.790  1.00  0.00     0.004 A 
ATOM     14  C   UNL     1      -0.119   1.512   6.171  1.00  0.00    -0.051 A 
ATOM     15  C   UNL     1      -0.664   0.193   5.743  1.00  0.00     0.044 C 
ENDBRANCH   7   9
ENDBRANCH   1   7
BRANCH   4  16
ATOM     16  N   UNL     1       2.566   8.410  10.972  1.00  0.00     0.066 N 
ATOM     17  O   UNL     1       2.085   9.332  10.270  1.00  0.00    -0.258 OA
ATOM     18  O   UNL     1       3.136   8.630  12.066  1.00  0.00    -0.258 OA
ENDBRANCH   4  16
BRANCH   5  19
ATOM     19  O   UNL     1       3.011   3.636  11.669  1.00  0.00    -0.504 OA
ATOM     20  H   UNL     1       2.894   2.807  11.177  1.00  0.00     0.293 HD
ENDBRANCH   5  19
BRANCH   6  21
ATOM     21  O   UNL     1       3.236   6.221  12.613  1.00  0.00    -0.500 OA
ATOM     22  H   UNL     1       4.075   6.706  12.588  1.00  0.00     0.294 HD
ENDBRANCH   6  21
TORSDOF 5
ENDMDL
MODEL 6
REMARK VINA RESULT:    -4.272      3.854      6.972
REMARK INTER + INTRA:          -6.038
REMARK INTER:                  -5.071
REMARK INTRA:                  -0.966
REMARK UNBOUND:                -0.767
REMARK SMILES Cc1ccc(C(=O)c2cc(O)c(O)c([N+](=O)[O-])c2)cc1
REMARK SMILES IDX 8 1 18 2 9 3 14 4 10 5 12 6 6 7 7 8 5 9 4 10 19 11 3 12
REMARK SMILES IDX 20 13 2 14 1 15 15 16 17 17 16 18 11 19 13 21
REMARK H PARENT 11 20 13 22
ROOT
ATOM      1  C   UNL     1       2.370   5.600   8.194  1.00  0.00     0.033 A 
ATOM      2  C   UNL     1       2.073   6.941   8.276  1.00  0.00     0.102 A 
ATOM      3  C   UNL     1       2.742   4.849   9.284  1.00  0.00     0.063 A 
ATOM      4  C   UNL     1       2.152   7.566   9.521  1.00  0.00     0.315 A 
ATOM      5  C   UNL     1       2.821   5.475  10.529  1.00  0.00     0.165 A 
ATOM      6  C   UNL     1       2.525   6.833  10.647  1.00  0.00     0.237 A 
ENDROOT
BRANCH   1   7
ATOM      7  C   UNL     1       2.286   4.930   6.861  1.00  0.00     0.193 C 
ATOM      8  O   UNL     1       2.954   5.418   5.936  1.00  0.00    -0.289 OA
BRANCH   7   9
ATOM      9  C   UNL     1       1.464   3.753   6.630  1.00  0.00     0.023 A 
ATOM     10  C   UNL     1       2.028   2.608   6.066  1.00  0.00     0.012 A 
ATOM     11  C   UNL     1       0.112   3.769   6.973  1.00  0.00     0.012 A 
ATOM     12  C   UNL     1       1.239   1.480   5.845  1.00  0.00     0.004 A 
ATOM     13  C   UNL     1      -0.677   2.639   6.752  1.00  0.00     0.004 A 
ATOM     14  C   UNL     1      -0.114   1.495   6.188  1.00  0.00    -0.051 A 
ATOM     15  C   UNL     1      -0.957   0.288   5.950  1.00  0.00     0.044 C 
ENDBRANCH   7   9
ENDBRANCH   1   7
BRANCH   4  16
ATOM     16  N   UNL     1       1.847   8.951   9.622  1.00  0.00     0.066 N 
ATOM     17  O   UNL     1       2.370   9.621  10.545  1.00  0.00    -0.258 OA
ATOM     18  O   UNL     1       1.066   9.462   8.786  1.00  0.00    -0.258 OA
ENDBRANCH   4  16
BRANCH   5  19
ATOM     19  O   UNL     1       3.188   4.747  11.621  1.00  0.00    -0.504 OA
ATOM     20  H   UNL     1       2.573   4.003  11.737  1.00  0.00     0.293 HD
ENDBRANCH   5  19
BRANCH   6  21
ATOM     21  O   UNL     1       2.606   7.434  11.870  1.00  0.00    -0.500 OA
ATOM     22  H   UNL     1       1.714   7.578  12.222  1.00  0.00     0.294 HD
ENDBRANCH   6  21
TORSDOF 5
ENDMDL
MODEL 7
REMARK VINA RESULT:    -4.212      2.434      4.273
REMARK INTER + INTRA:          -5.964
REMARK INTER:                  -5.007
REMARK INTRA:                  -0.957
REMARK UNBOUND:                -0.767
REMARK SMILES Cc1ccc(C(=O)c2cc(O)c(O)c([N+](=O)[O-])c2)cc1
REMARK SMILES IDX 8 1 18 2 9 3 14 4 10 5 12 6 6 7 7 8 5 9 4 10 19 11 3 12
REMARK SMILES IDX 20 13 2 14 1 15 15 16 17 17 16 18 11 19 13 21
REMARK H PARENT 11 20 13 22
ROOT
ATOM      1  C   UNL     1       2.562   5.726   7.779  1.00  0.00     0.033 A 
ATOM      2  C   UNL     1       1.624   4.878   7.237  1.00  0.00     0.102 A 
ATOM      3  C   UNL     1       3.766   5.994   7.172  1.00  0.00     0.063 A 
ATOM      4  C   UNL     1       1.907   4.263   6.017  1.00  0.00     0.315 A 
ATOM      5  C   UNL     1       4.049   5.379   5.952  1.00  0.00     0.165 A 
ATOM      6  C   UNL     1       3.119   4.514   5.374  1.00  0.00     0.237 A 
ENDROOT
BRANCH   1   7
ATOM      7  C   UNL     1       2.259   6.384   9.086  1.00  0.00     0.193 C 
ATOM      8  O   UNL     1       2.373   5.694  10.110  1.00  0.00    -0.289 OA
BRANCH   7   9
ATOM      9  C   UNL     1       1.848   7.775   9.181  1.00  0.00     0.023 A 
ATOM     10  C   UNL     1       0.787   8.243   8.406  1.00  0.00     0.012 A 
ATOM     11  C   UNL     1       2.513   8.642  10.049  1.00  0.00     0.012 A 
ATOM     12  C   UNL     1       0.392   9.578   8.498  1.00  0.00     0.004 A 
ATOM     13  C   UNL     1       2.118   9.977  10.141  1.00  0.00     0.004 A 
ATOM     14  C   UNL     1       1.057  10.445   9.366  1.00  0.00    -0.051 A 
ATOM     15  C   UNL     1       0.635  11.871   9.463  1.00  0.00     0.044 C 
ENDBRANCH   7   9
ENDBRANCH   1   7
BRANCH   4  16
ATOM     16  N   UNL     1       0.948   3.385   5.444  1.00  0.00     0.066 N 
ATOM     17  O   UNL     1      -0.249   3.755   5.375  1.00  0.00    -0.258 OA
ATOM     18  O   UNL     1       1.325   2.266   5.024  1.00  0.00    -0.258 OA
ENDBRANCH   4  16
BRANCH   5  19
ATOM     19  O   UNL     1       5.237   5.633   5.335  1.00  0.00    -0.504 OA
ATOM     20  H   UNL     1       5.916   5.824   6.003  1.00  0.00     0.293 HD
ENDBRANCH   5  19
BRANCH   6  21
ATOM     21  O   UNL     1       3.407   3.919   4.180  1.00  0.00    -0.500 OA
ATOM     22  H   UNL     1       2.638   3.976   3.593  1.00  0.00     0.294 HD
ENDBRANCH   6  21
TORSDOF 5
ENDMDL
MODEL 8
REMARK VINA RESULT:    -4.142      1.676      2.953
REMARK INTER + INTRA:          -5.877
REMARK INTER:                  -5.253
REMARK INTRA:                  -0.625
REMARK UNBOUND:                -0.767
REMARK SMILES Cc1ccc(C(=O)c2cc(O)c(O)c([N+](=O)[O-])c2)cc1
REMARK SMILES IDX 8 1 18 2 9 3 14 4 10 5 12 6 6 7 7 8 5 9 4 10 19 11 3 12
REMARK SMILES IDX 20 13 2 14 1 15 15 16 17 17 16 18 11 19 13 21
REMARK H PARENT 11 20 13 22
ROOT
ATOM      1  C   UNL     1       1.983   3.331   4.983  1.00  0.00     0.033 A 
ATOM      2  C   UNL     1       1.427   2.231   5.594  1.00  0.00     0.102 A 
ATOM      3  C   UNL     1       1.627   3.742   3.720  1.00  0.00     0.063 A 
ATOM      4  C   UNL     1       0.459   1.502   4.904  1.00  0.00     0.315 A 
ATOM      5  C   UNL     1       0.659   3.013   3.029  1.00  0.00     0.165 A 
ATOM      6  C   UNL     1       0.074   1.893   3.622  1.00  0.00     0.237 A 
ENDROOT
BRANCH   1   7
ATOM      7  C   UNL     1       3.020   4.112   5.722  1.00  0.00     0.193 C 
ATOM      8  O   UNL     1       4.207   3.890   5.440  1.00  0.00    -0.289 OA
BRANCH   7   9
ATOM      9  C   UNL     1       2.679   5.098   6.735  1.00  0.00     0.023 A 
ATOM     10  C   UNL     1       1.573   4.896   7.561  1.00  0.00     0.012 A 
ATOM     11  C   UNL     1       3.457   6.246   6.880  1.00  0.00     0.012 A 
ATOM     12  C   UNL     1       1.246   5.842   8.532  1.00  0.00     0.004 A 
ATOM     13  C   UNL     1       3.131   7.193   7.852  1.00  0.00     0.004 A 
ATOM     14  C   UNL     1       2.025   6.991   8.678  1.00  0.00    -0.051 A 
ATOM     15  C   UNL     1       1.674   8.002   9.716  1.00  0.00     0.044 C 
ENDBRANCH   7   9
ENDBRANCH   1   7
BRANCH   4  16
ATOM     16  N   UNL     1      -0.125   0.363   5.524  1.00  0.00     0.066 N 
ATOM     17  O   UNL     1      -0.017  -0.754   4.963  1.00  0.00    -0.258 OA
ATOM     18  O   UNL     1      -0.729   0.509   6.612  1.00  0.00    -0.258 OA
ENDBRANCH   4  16
BRANCH   5  19
ATOM     19  O   UNL     1       0.292   3.406   1.777  1.00  0.00    -0.504 OA
ATOM     20  H   UNL     1      -0.178   4.255   1.827  1.00  0.00     0.293 HD
ENDBRANCH   5  19
BRANCH   6  21
ATOM     21  O   UNL     1      -0.872   1.188   2.936  1.00  0.00    -0.500 OA
ATOM     22  H   UNL     1      -1.682   1.716   2.862  1.00  0.00     0.294 HD
ENDBRANCH   6  21
TORSDOF 5
ENDMDL
MODEL 9
REMARK VINA RESULT:    -4.064      4.308      7.346
REMARK INTER + INTRA:          -5.781
REMARK INTER:                  -4.986
REMARK INTRA:                  -0.795
REMARK UNBOUND:                -0.767
REMARK SMILES Cc1ccc(C(=O)c2cc(O)c(O)c([N+](=O)[O-])c2)cc1
REMARK SMILES IDX 8 1 18 2 9 3 14 4 10 5 12 6 6 7 7 8 5 9 4 10 19 11 3 12
REMARK SMILES IDX 20 13 2 14 1 15 15 16 17 17 16 18 11 19 13 21
REMARK H PARENT 11 20 13 22
ROOT
ATOM      1  C   UNL     1       1.828   6.512   8.544  1.00  0.00     0.033 A 
ATOM      2  C   UNL     1       2.345   6.775   9.792  1.00  0.00     0.102 A 
ATOM      3  C   UNL     1       1.349   7.495   7.712  1.00  0.00     0.063 A 
ATOM      4  C   UNL     1       2.386   8.098  10.231  1.00  0.00     0.315 A 
ATOM      5  C   UNL     1       1.390   8.819   8.151  1.00  0.00     0.165 A 
ATOM      6  C   UNL     1       1.909   9.120   9.411  1.00  0.00     0.237 A 
ENDROOT
BRANCH   1   7
ATOM      7  C   UNL     1       1.784   5.094   8.074  1.00  0.00     0.193 C 
ATOM      8  O   UNL     1       1.821   4.206   8.939  1.00  0.00    -0.289 OA
BRANCH   7   9
ATOM      9  C   UNL     1       1.702   4.742   6.666  1.00  0.00     0.023 A 
ATOM     10  C   UNL     1       0.456   4.584   6.058  1.00  0.00     0.012 A 
ATOM     11  C   UNL     1       2.868   4.563   5.922  1.00  0.00     0.012 A 
ATOM     12  C   UNL     1       0.377   4.247   4.707  1.00  0.00     0.004 A 
ATOM     13  C   UNL     1       2.789   4.226   4.570  1.00  0.00     0.004 A 
ATOM     14  C   UNL     1       1.544   4.068   3.962  1.00  0.00    -0.051 A 
ATOM     15  C   UNL     1       1.459   3.706   2.519  1.00  0.00     0.044 C 
ENDBRANCH   7   9
ENDBRANCH   1   7
BRANCH   4  16
ATOM     16  N   UNL     1       2.918   8.386  11.517  1.00  0.00     0.066 N 
ATOM     17  O   UNL     1       3.447   9.506  11.718  1.00  0.00    -0.258 OA
ATOM     18  O   UNL     1       2.843   7.514  12.413  1.00  0.00    -0.258 OA
ENDBRANCH   4  16
BRANCH   5  19
ATOM     19  O   UNL     1       0.920   9.807   7.339  1.00  0.00    -0.504 OA
ATOM     20  H   UNL     1       1.536   9.941   6.600  1.00  0.00     0.293 HD
ENDBRANCH   5  19
BRANCH   6  21
ATOM     21  O   UNL     1       1.943  10.419   9.829  1.00  0.00    -0.500 OA
ATOM     22  H   UNL     1       2.064  11.004   9.065  1.00  0.00     0.294 HD
ENDBRANCH   6  21
TORSDOF 5
ENDMDL
