MODEL 1
REMARK VINA RESULT:    -4.956      0.000      0.000
REMARK INTER + INTRA:          -6.850
REMARK INTER:                  -6.115
REMARK INTRA:                  -0.735
REMARK UNBOUND:                -0.735
REMARK SMILES Cc1ccc(C(=O)c2cc(O)c(O)c([N+](=O)[O-])c2)cc1
REMARK SMILES IDX 8 1 18 2 9 3 14 4 10 5 12 6 6 7 7 8 5 9 4 10 19 11 3 12
REMARK SMILES IDX 20 13 2 14 1 15 15 16 17 17 16 18 11 19 13 21
REMARK H PARENT 11 20 13 22
ROOT
ATOM      1  C   UNL     1       7.232  -2.727   3.135  1.00  0.00     0.033 A 
ATOM      2  C   UNL     1       6.566  -1.755   3.845  1.00  0.00     0.102 A 
ATOM      3  C   UNL     1       6.749  -3.259   1.963  1.00  0.00     0.063 A 
ATOM      4  C   UNL     1       5.347  -1.288   3.353  1.00  0.00     0.315 A 
ATOM      5  C   UNL     1       5.530  -2.792   1.471  1.00  0.00     0.165 A 
ATOM      6  C   UNL     1       4.829  -1.806   2.166  1.00  0.00     0.237 A 
ENDROOT
BRANCH   1   7
ATOM      7  C   UNL     1       8.538  -3.228   3.661  1.00  0.00     0.193 C 
ATOM      8  O   UNL     1       9.436  -3.450   2.836  1.00  0.00    -0.289 OA
BRANCH   7   9
ATOM      9  C   UNL     1       8.772  -3.454   5.079  1.00  0.00     0.023 A 
ATOM     10  C   UNL     1       8.649  -4.738   5.610  1.00  0.00     0.012 A 
ATOM     11  C   UNL     1       9.119  -2.387   5.907  1.00  0.00     0.012 A 
ATOM     12  C   UNL     1       8.874  -4.954   6.969  1.00  0.00     0.004 A 
ATOM     13  C   UNL     1       9.344  -2.603   7.267  1.00  0.00     0.004 A 
ATOM     14  C   UNL     1       9.222  -3.887   7.799  1.00  0.00    -0.051 A 
ATOM     15  C   UNL     1       9.460  -4.119   9.252  1.00  0.00     0.044 C 
ENDBRANCH   7   9
ENDBRANCH   1   7
BRANCH   4  16
ATOM     16  N   UNL     1       4.647  -0.283   4.075  1.00  0.00     0.066 N 
ATOM     17  O   UNL     1       3.395  -0.343   4.138  1.00  0.00    -0.258 OA
ATOM     18  O   UNL     1       5.301   0.633   4.627  1.00  0.00    -0.258 OA
ENDBRANCH   4  16
BRANCH   5  19
ATOM     19  O   UNL     1       5.035  -3.307   0.311  1.00  0.00    -0.504 OA
ATOM     20  H   UNL     1       4.760  -2.583  -0.275  1.00  0.00     0.293 HD
ENDBRANCH   5  19
BRANCH   6  21
ATOM     21  O   UNL     1       3.637  -1.357   1.675  1.00  0.00    -0.500 OA
ATOM     22  H   UNL     1       3.070  -2.112   1.455  1.00  0.00     0.294 HD
ENDBRANCH   6  21
TORSDOF 5
ENDMDL
MODEL 2
REMARK VINA RESULT:    -4.949      2.013      3.541
REMARK INTER + INTRA:          -6.841
REMARK INTER:                  -6.134
REMARK INTRA:                  -0.707
REMARK UNBOUND:                -0.735
REMARK SMILES Cc1ccc(C(=O)c2cc(O)c(O)c([N+](=O)[O-])c2)cc1
REMARK SMILES IDX 8 1 18 2 9 3 14 4 10 5 12 6 6 7 7 8 5 9 4 10 19 11 3 12
REMARK SMILES IDX 20 13 2 14 1 15 15 16 17 17 16 18 11 19 13 21
REMARK H PARENT 11 20 13 22
ROOT
ATOM      1  C   UNL     1       6.117  -2.678   4.521  1.00  0.00     0.033 A 
ATOM      2  C   UNL     1       6.257  -3.280   3.292  1.00  0.00     0.102 A 
ATOM      3  C   UNL     1       5.230  -1.653   4.753  1.00  0.00     0.063 A 
ATOM      4  C   UNL     1       5.463  -2.833   2.236  1.00  0.00     0.315 A 
ATOM      5  C   UNL     1       4.436  -1.206   3.697  1.00  0.00     0.165 A 
ATOM      6  C   UNL     1       4.552  -1.796   2.438  1.00  0.00     0.237 A 
ENDROOT
BRANCH   1   7
ATOM      7  C   UNL     1       6.968  -3.156   5.652  1.00  0.00     0.193 C 
ATOM      8  O   UNL     1       6.483  -3.098   6.793  1.00  0.00    -0.289 OA
BRANCH   7   9
ATOM      9  C   UNL     1       8.312  -3.674   5.453  1.00  0.00     0.023 A 
ATOM     10  C   UNL     1       9.417  -2.855   5.687  1.00  0.00     0.012 A 
ATOM     11  C   UNL     1       8.496  -4.989   5.027  1.00  0.00     0.012 A 
ATOM     12  C   UNL     1      10.705  -3.352   5.496  1.00  0.00     0.004 A 
ATOM     13  C   UNL     1       9.786  -5.487   4.836  1.00  0.00     0.004 A 
ATOM     14  C   UNL     1      10.891  -4.668   5.070  1.00  0.00    -0.051 A 
ATOM     15  C   UNL     1      12.269  -5.199   4.865  1.00  0.00     0.044 C 
ENDBRANCH   7   9
ENDBRANCH   1   7
BRANCH   4  16
ATOM     16  N   UNL     1       5.596  -3.447   0.960  1.00  0.00     0.066 N 
ATOM     17  O   UNL     1       5.930  -4.655   0.901  1.00  0.00    -0.258 OA
ATOM     18  O   UNL     1       5.374  -2.764  -0.066  1.00  0.00    -0.258 OA
ENDBRANCH   4  16
BRANCH   5  19
ATOM     19  O   UNL     1       3.551  -0.192   3.909  1.00  0.00    -0.504 OA
ATOM     20  H   UNL     1       3.707   0.199   4.785  1.00  0.00     0.293 HD
ENDBRANCH   5  19
BRANCH   6  21
ATOM     21  O   UNL     1       3.770  -1.350   1.413  1.00  0.00    -0.500 OA
ATOM     22  H   UNL     1       4.148  -1.636   0.566  1.00  0.00     0.294 HD
ENDBRANCH   6  21
TORSDOF 5
ENDMDL
MODEL 3
REMARK VINA RESULT:    -4.247      3.491      7.128
REMARK INTER + INTRA:          -5.975
REMARK INTER:                  -5.030
REMARK INTRA:                  -0.945
REMARK UNBOUND:                -0.735
REMARK SMILES Cc1ccc(C(=O)c2cc(O)c(O)c([N+](=O)[O-])c2)cc1
REMARK SMILES IDX 8 1 18 2 9 3 14 4 10 5 12 6 6 7 7 8 5 9 4 10 19 11 3 12
REMARK SMILES IDX 20 13 2 14 1 15 15 16 17 17 16 18 11 19 13 21
REMARK H PARENT 11 20 13 22
ROOT
ATOM      1  C   UNL     1       9.223  -3.141   5.954  1.00  0.00     0.033 A 
ATOM      2  C   UNL     1      10.242  -3.768   5.275  1.00  0.00     0.102 A 
ATOM      3  C   UNL     1       9.062  -3.239   7.316  1.00  0.00     0.063 A 
ATOM      4  C   UNL     1      11.152  -4.536   6.000  1.00  0.00     0.315 A 
ATOM      5  C   UNL     1       9.973  -4.008   8.041  1.00  0.00     0.165 A 
ATOM      6  C   UNL     1      11.018  -4.656   7.383  1.00  0.00     0.237 A 
ENDROOT
BRANCH   1   7
ATOM      7  C   UNL     1       8.247  -2.318   5.177  1.00  0.00     0.193 C 
ATOM      8  O   UNL     1       8.045  -1.158   5.566  1.00  0.00    -0.289 OA
BRANCH   7   9
ATOM      9  C   UNL     1       7.549  -2.832   4.010  1.00  0.00     0.023 A 
ATOM     10  C   UNL     1       6.896  -4.062   4.073  1.00  0.00     0.012 A 
ATOM     11  C   UNL     1       7.533  -2.094   2.826  1.00  0.00     0.012 A 
ATOM     12  C   UNL     1       6.226  -4.555   2.953  1.00  0.00     0.004 A 
ATOM     13  C   UNL     1       6.864  -2.586   1.705  1.00  0.00     0.004 A 
ATOM     14  C   UNL     1       6.210  -3.817   1.768  1.00  0.00    -0.051 A 
ATOM     15  C   UNL     1       5.496  -4.344   0.571  1.00  0.00     0.044 C 
ENDBRANCH   7   9
ENDBRANCH   1   7
BRANCH   4  16
ATOM     16  N   UNL     1      12.211  -5.190   5.312  1.00  0.00     0.066 N 
ATOM     17  O   UNL     1      13.302  -5.368   5.907  1.00  0.00    -0.258 OA
ATOM     18  O   UNL     1      12.024  -5.569   4.133  1.00  0.00    -0.258 OA
ENDBRANCH   4  16
BRANCH   5  19
ATOM     19  O   UNL     1       9.829  -4.116   9.392  1.00  0.00    -0.504 OA
ATOM     20  H   UNL     1      10.691  -4.310   9.796  1.00  0.00     0.293 HD
ENDBRANCH   5  19
BRANCH   6  21
ATOM     21  O   UNL     1      11.903  -5.405   8.104  1.00  0.00    -0.500 OA
ATOM     22  H   UNL     1      12.571  -5.782   7.510  1.00  0.00     0.294 HD
ENDBRANCH   6  21
TORSDOF 5
ENDMDL
MODEL 4
REMARK VINA RESULT:    -4.222      3.746      7.043
REMARK INTER + INTRA:          -5.945
REMARK INTER:                  -4.962
REMARK INTRA:                  -0.983
REMARK UNBOUND:                -0.735
REMARK SMILES Cc1ccc(C(=O)c2cc(O)c(O)c([N+](=O)[O-])c2)cc1
REMARK SMILES IDX 8 1 18 2 9 3 14 4 10 5 12 6 6 7 7 8 5 9 4 10 19 11 3 12
REMARK SMILES IDX 20 13 2 14 1 15 15 16 17 17 16 18 11 19 13 21
REMARK H PARENT 11 20 13 22
ROOT
ATOM      1  C   UNL     1       9.011  -4.434   5.583  1.00  0.00     0.033 A 
ATOM      2  C   UNL     1      10.269  -4.728   5.109  1.00  0.00     0.102 A 
ATOM      3  C   UNL     1       8.730  -4.307   6.923  1.00  0.00     0.063 A 
ATOM      4  C   UNL     1      11.304  -4.903   6.028  1.00  0.00     0.315 A 
ATOM      5  C   UNL     1       9.765  -4.483   7.842  1.00  0.00     0.165 A 
ATOM      6  C   UNL     1      11.052  -4.781   7.394  1.00  0.00     0.237 A 
ENDROOT
BRANCH   1   7
ATOM      7  C   UNL     1       7.903  -4.246   4.600  1.00  0.00     0.193 C 
ATOM      8  O   UNL     1       7.713  -5.154   3.776  1.00  0.00    -0.289 OA
BRANCH   7   9
ATOM      9  C   UNL     1       7.065  -3.058   4.587  1.00  0.00     0.023 A 
ATOM     10  C   UNL     1       7.648  -1.794   4.491  1.00  0.00     0.012 A 
ATOM     11  C   UNL     1       5.678  -3.181   4.670  1.00  0.00     0.012 A 
ATOM     12  C   UNL     1       6.844  -0.655   4.478  1.00  0.00     0.004 A 
ATOM     13  C   UNL     1       4.873  -2.042   4.658  1.00  0.00     0.004 A 
ATOM     14  C   UNL     1       5.456  -0.778   4.562  1.00  0.00    -0.051 A 
ATOM     15  C   UNL     1       4.597   0.441   4.550  1.00  0.00     0.044 C 
ENDBRANCH   7   9
ENDBRANCH   1   7
BRANCH   4  16
ATOM     16  N   UNL     1      12.609  -5.207   5.553  1.00  0.00     0.066 N 
ATOM     17  O   UNL     1      13.378  -5.878   6.282  1.00  0.00    -0.258 OA
ATOM     18  O   UNL     1      12.952  -4.796   4.420  1.00  0.00    -0.258 OA
ENDBRANCH   4  16
BRANCH   5  19
ATOM     19  O   UNL     1       9.504  -4.360   9.174  1.00  0.00    -0.504 OA
ATOM     20  H   UNL     1       9.288  -5.231   9.545  1.00  0.00     0.293 HD
ENDBRANCH   5  19
BRANCH   6  21
ATOM     21  O   UNL     1      12.056  -4.950   8.302  1.00  0.00    -0.500 OA
ATOM     22  H   UNL     1      11.723  -5.441   9.070  1.00  0.00     0.294 HD
ENDBRANCH   6  21
TORSDOF 5
ENDMDL
MODEL 5
REMARK VINA RESULT:    -4.205      8.136     11.899
REMARK INTER + INTRA:          -5.924
REMARK INTER:                  -5.406
REMARK INTRA:                  -0.518
REMARK UNBOUND:                -0.735
REMARK SMILES Cc1ccc(C(=O)c2cc(O)c(O)c([N+](=O)[O-])c2)cc1
REMARK SMILES IDX 8 1 18 2 9 3 14 4 10 5 12 6 6 7 7 8 5 9 4 10 19 11 3 12
REMARK SMILES IDX 20 13 2 14 1 15 15 16 17 17 16 18 11 19 13 21
REMARK H PARENT 11 20 13 22
ROOT
ATOM      1  C   UNL     1      10.671  -7.075  13.257  1.00  0.00     0.033 A 
ATOM      2  C   UNL     1      12.018  -6.952  13.001  1.00  0.00     0.102 A 
ATOM      3  C   UNL     1      10.113  -8.214  13.786  1.00  0.00     0.063 A 
ATOM      4  C   UNL     1      12.853  -8.030  13.294  1.00  0.00     0.315 A 
ATOM      5  C   UNL     1      10.949  -9.293  14.079  1.00  0.00     0.165 A 
ATOM      6  C   UNL     1      12.319  -9.200  13.833  1.00  0.00     0.237 A 
ENDROOT
BRANCH   1   7
ATOM      7  C   UNL     1       9.776  -5.921  12.943  1.00  0.00     0.193 C 
ATOM      8  O   UNL     1       9.131  -5.429  13.881  1.00  0.00    -0.289 OA
BRANCH   7   9
ATOM      9  C   UNL     1       9.648  -5.376  11.601  1.00  0.00     0.023 A 
ATOM     10  C   UNL     1      10.737  -4.748  10.996  1.00  0.00     0.012 A 
ATOM     11  C   UNL     1       8.437  -5.481  10.918  1.00  0.00     0.012 A 
ATOM     12  C   UNL     1      10.614  -4.225   9.709  1.00  0.00     0.004 A 
ATOM     13  C   UNL     1       8.313  -4.958   9.630  1.00  0.00     0.004 A 
ATOM     14  C   UNL     1       9.402  -4.331   9.025  1.00  0.00    -0.051 A 
ATOM     15  C   UNL     1       9.270  -3.771   7.650  1.00  0.00     0.044 C 
ENDBRANCH   7   9
ENDBRANCH   1   7
BRANCH   4  16
ATOM     16  N   UNL     1      14.247  -7.917  13.036  1.00  0.00     0.066 N 
ATOM     17  O   UNL     1      15.050  -8.005  13.997  1.00  0.00    -0.258 OA
ATOM     18  O   UNL     1      14.632  -7.735  11.858  1.00  0.00    -0.258 OA
ENDBRANCH   4  16
BRANCH   5  19
ATOM     19  O   UNL     1      10.413 -10.430  14.605  1.00  0.00    -0.504 OA
ATOM     20  H   UNL     1       9.875 -10.206  15.382  1.00  0.00     0.293 HD
ENDBRANCH   5  19
BRANCH   6  21
ATOM     21  O   UNL     1      13.126 -10.262  14.124  1.00  0.00    -0.500 OA
ATOM     22  H   UNL     1      13.991 -10.139  13.701  1.00  0.00     0.294 HD
ENDBRANCH   6  21
TORSDOF 5
ENDMDL
MODEL 6
REMARK VINA RESULT:    -4.192      3.629      6.559
REMARK INTER + INTRA:          -5.908
REMARK INTER:                  -4.939
REMARK INTRA:                  -0.969
REMARK UNBOUND:                -0.735
REMARK SMILES Cc1ccc(C(=O)c2cc(O)c(O)c([N+](=O)[O-])c2)cc1
REMARK SMILES IDX 8 1 18 2 9 3 14 4 10 5 12 6 6 7 7 8 5 9 4 10 19 11 3 12
REMARK SMILES IDX 20 13 2 14 1 15 15 16 17 17 16 18 11 19 13 21
REMARK H PARENT 11 20 13 22
ROOT
ATOM      1  C   UNL     1       9.002  -4.491   5.464  1.00  0.00     0.033 A 
ATOM      2  C   UNL     1       8.796  -4.306   6.812  1.00  0.00     0.102 A 
ATOM      3  C   UNL     1      10.222  -4.846   4.938  1.00  0.00     0.063 A 
ATOM      4  C   UNL     1       9.870  -4.488   7.682  1.00  0.00     0.315 A 
ATOM      5  C   UNL     1      11.297  -5.027   5.809  1.00  0.00     0.165 A 
ATOM      6  C   UNL     1      11.121  -4.849   7.181  1.00  0.00     0.237 A 
ENDROOT
BRANCH   1   7
ATOM      7  C   UNL     1       7.852  -4.296   4.532  1.00  0.00     0.193 C 
ATOM      8  O   UNL     1       7.608  -5.210   3.730  1.00  0.00    -0.289 OA
BRANCH   7   9
ATOM      9  C   UNL     1       7.034  -3.093   4.543  1.00  0.00     0.023 A 
ATOM     10  C   UNL     1       7.637  -1.839   4.435  1.00  0.00     0.012 A 
ATOM     11  C   UNL     1       5.648  -3.193   4.660  1.00  0.00     0.012 A 
ATOM     12  C   UNL     1       6.852  -0.686   4.446  1.00  0.00     0.004 A 
ATOM     13  C   UNL     1       4.863  -2.039   4.670  1.00  0.00     0.004 A 
ATOM     14  C   UNL     1       5.465  -0.786   4.563  1.00  0.00    -0.051 A 
ATOM     15  C   UNL     1       4.628   0.448   4.575  1.00  0.00     0.044 C 
ENDBRANCH   7   9
ENDBRANCH   1   7
BRANCH   4  16
ATOM     16  N   UNL     1       9.672  -4.301   9.078  1.00  0.00     0.066 N 
ATOM     17  O   UNL     1       8.805  -3.480   9.462  1.00  0.00    -0.258 OA
ATOM     18  O   UNL     1      10.368  -4.963   9.883  1.00  0.00    -0.258 OA
ENDBRANCH   4  16
BRANCH   5  19
ATOM     19  O   UNL     1      12.513  -5.380   5.305  1.00  0.00    -0.504 OA
ATOM     20  H   UNL     1      13.144  -5.501   6.033  1.00  0.00     0.293 HD
ENDBRANCH   5  19
BRANCH   6  21
ATOM     21  O   UNL     1      12.180  -5.030   8.023  1.00  0.00    -0.500 OA
ATOM     22  H   UNL     1      12.873  -4.384   7.818  1.00  0.00     0.294 HD
ENDBRANCH   6  21
TORSDOF 5
ENDMDL
MODEL 7
REMARK VINA RESULT:    -4.158      3.678      6.820
REMARK INTER + INTRA:          -5.865
REMARK INTER:                  -4.891
REMARK INTRA:                  -0.974
REMARK UNBOUND:                -0.735
REMARK SMILES Cc1ccc(C(=O)c2cc(O)c(O)c([N+](=O)[O-])c2)cc1
REMARK SMILES IDX 8 1 18 2 9 3 14 4 10 5 12 6 6 7 7 8 5 9 4 10 19 11 3 12
REMARK SMILES IDX 20 13 2 14 1 15 15 16 17 17 16 18 11 19 13 21
REMARK H PARENT 11 20 13 22
ROOT
ATOM      1  C   UNL     1       9.227  -3.175   5.930  1.00  0.00     0.033 A 
ATOM      2  C   UNL     1       9.046  -3.352   7.282  1.00  0.00     0.102 A 
ATOM      3  C   UNL     1      10.284  -3.720   5.241  1.00  0.00     0.063 A 
ATOM      4  C   UNL     1       9.975  -4.120   7.984  1.00  0.00     0.315 A 
ATOM      5  C   UNL     1      11.214  -4.487   5.943  1.00  0.00     0.165 A 
ATOM      6  C   UNL     1      11.060  -4.687   7.315  1.00  0.00     0.237 A 
ENDROOT
BRANCH   1   7
ATOM      7  C   UNL     1       8.232  -2.353   5.178  1.00  0.00     0.193 C 
ATOM      8  O   UNL     1       8.011  -1.206   5.594  1.00  0.00    -0.289 OA
BRANCH   7   9
ATOM      9  C   UNL     1       7.536  -2.853   4.003  1.00  0.00     0.023 A 
ATOM     10  C   UNL     1       7.527  -2.104   2.826  1.00  0.00     0.012 A 
ATOM     11  C   UNL     1       6.879  -4.082   4.052  1.00  0.00     0.012 A 
ATOM     12  C   UNL     1       6.861  -2.584   1.699  1.00  0.00     0.004 A 
ATOM     13  C   UNL     1       6.212  -4.563   2.924  1.00  0.00     0.004 A 
ATOM     14  C   UNL     1       6.203  -3.814   1.747  1.00  0.00    -0.051 A 
ATOM     15  C   UNL     1       5.489  -4.325   0.543  1.00  0.00     0.044 C 
ENDBRANCH   7   9
ENDBRANCH   1   7
BRANCH   4  16
ATOM     16  N   UNL     1       9.802  -4.312   9.382  1.00  0.00     0.066 N 
ATOM     17  O   UNL     1       8.640  -4.453   9.835  1.00  0.00    -0.258 OA
ATOM     18  O   UNL     1      10.813  -4.336  10.121  1.00  0.00    -0.258 OA
ENDBRANCH   4  16
BRANCH   5  19
ATOM     19  O   UNL     1      12.268  -5.035   5.276  1.00  0.00    -0.504 OA
ATOM     20  H   UNL     1      12.845  -4.329   4.941  1.00  0.00     0.293 HD
ENDBRANCH   5  19
BRANCH   6  21
ATOM     21  O   UNL     1      11.976  -5.440   7.991  1.00  0.00    -0.500 OA
ATOM     22  H   UNL     1      12.759  -4.902   8.186  1.00  0.00     0.294 HD
ENDBRANCH   6  21
TORSDOF 5
ENDMDL
MODEL 8
REMARK VINA RESULT:    -4.023      1.874      2.247
REMARK INTER + INTRA:          -5.698
REMARK INTER:                  -5.044
REMARK INTRA:                  -0.654
REMARK UNBOUND:                -0.735
REMARK SMILES Cc1ccc(C(=O)c2cc(O)c(O)c([N+](=O)[O-])c2)cc1
REMARK SMILES IDX 8 1 18 2 9 3 14 4 10 5 12 6 6 7 7 8 5 9 4 10 19 11 3 12
REMARK SMILES IDX 20 13 2 14 1 15 15 16 17 17 16 18 11 19 13 21
REMARK H PARENT 11 20 13 22
ROOT
ATOM      1  C   UNL     1       6.475  -2.832   4.666  1.00  0.00     0.033 A 
ATOM      2  C   UNL     1       5.740  -1.695   4.909  1.00  0.00     0.102 A 
ATOM      3  C   UNL     1       6.431  -3.508   3.470  1.00  0.00     0.063 A 
ATOM      4  C   UNL     1       4.916  -1.205   3.896  1.00  0.00     0.315 A 
ATOM      5  C   UNL     1       5.606  -3.019   2.457  1.00  0.00     0.165 A 
ATOM      6  C   UNL     1       4.848  -1.866   2.670  1.00  0.00     0.237 A 
ENDROOT
BRANCH   1   7
ATOM      7  C   UNL     1       7.358  -3.358   5.751  1.00  0.00     0.193 C 
ATOM      8  O   UNL     1       6.899  -3.368   6.903  1.00  0.00    -0.289 OA
BRANCH   7   9
ATOM      9  C   UNL     1       8.704  -3.843   5.493  1.00  0.00     0.023 A 
ATOM     10  C   UNL     1       8.903  -5.156   5.067  1.00  0.00     0.012 A 
ATOM     11  C   UNL     1       9.798  -2.995   5.673  1.00  0.00     0.012 A 
ATOM     12  C   UNL     1      10.194  -5.621   4.820  1.00  0.00     0.004 A 
ATOM     13  C   UNL     1      11.090  -3.460   5.426  1.00  0.00     0.004 A 
ATOM     14  C   UNL     1      11.288  -4.774   4.999  1.00  0.00    -0.051 A 
ATOM     15  C   UNL     1      12.669  -5.272   4.737  1.00  0.00     0.044 C 
ENDBRANCH   7   9
ENDBRANCH   1   7
BRANCH   4  16
ATOM     16  N   UNL     1       4.151  -0.030   4.132  1.00  0.00     0.066 N 
ATOM     17  O   UNL     1       2.899  -0.107   4.107  1.00  0.00    -0.258 OA
ATOM     18  O   UNL     1       4.750   1.048   4.358  1.00  0.00    -0.258 OA
ENDBRANCH   4  16
BRANCH   5  19
ATOM     19  O   UNL     1       5.551  -3.675   1.264  1.00  0.00    -0.504 OA
ATOM     20  H   UNL     1       4.661  -3.586   0.885  1.00  0.00     0.293 HD
ENDBRANCH   5  19
BRANCH   6  21
ATOM     21  O   UNL     1       4.046  -1.397   1.671  1.00  0.00    -0.500 OA
ATOM     22  H   UNL     1       3.634  -2.142   1.207  1.00  0.00     0.294 HD
ENDBRANCH   6  21
TORSDOF 5
ENDMDL
MODEL 9
REMARK VINA RESULT:    -3.995      1.243      2.689
REMARK INTER + INTRA:          -5.664
REMARK INTER:                  -5.023
REMARK INTRA:                  -0.641
REMARK UNBOUND:                -0.735
REMARK SMILES Cc1ccc(C(=O)c2cc(O)c(O)c([N+](=O)[O-])c2)cc1
REMARK SMILES IDX 8 1 18 2 9 3 14 4 10 5 12 6 6 7 7 8 5 9 4 10 19 11 3 12
REMARK SMILES IDX 20 13 2 14 1 15 15 16 17 17 16 18 11 19 13 21
REMARK H PARENT 11 20 13 22
ROOT
ATOM      1  C   UNL     1       7.504  -2.824   3.517  1.00  0.00     0.033 A 
ATOM      2  C   UNL     1       7.018  -3.392   2.363  1.00  0.00     0.102 A 
ATOM      3  C   UNL     1       6.879  -1.780   4.157  1.00  0.00     0.063 A 
ATOM      4  C   UNL     1       5.837  -2.887   1.817  1.00  0.00     0.315 A 
ATOM      5  C   UNL     1       5.699  -1.275   3.611  1.00  0.00     0.165 A 
ATOM      6  C   UNL     1       5.177  -1.829   2.441  1.00  0.00     0.237 A 
ENDROOT
BRANCH   1   7
ATOM      7  C   UNL     1       8.769  -3.365   4.102  1.00  0.00     0.193 C 
ATOM      8  O   UNL     1       9.693  -3.624   3.316  1.00  0.00    -0.289 OA
BRANCH   7   9
ATOM      9  C   UNL     1       8.935  -3.588   5.529  1.00  0.00     0.023 A 
ATOM     10  C   UNL     1       8.747  -4.863   6.062  1.00  0.00     0.012 A 
ATOM     11  C   UNL     1       9.283  -2.527   6.364  1.00  0.00     0.012 A 
ATOM     12  C   UNL     1       8.908  -5.076   7.431  1.00  0.00     0.004 A 
ATOM     13  C   UNL     1       9.444  -2.739   7.734  1.00  0.00     0.004 A 
ATOM     14  C   UNL     1       9.256  -4.015   8.268  1.00  0.00    -0.051 A 
ATOM     15  C   UNL     1       9.426  -4.243   9.731  1.00  0.00     0.044 C 
ENDBRANCH   7   9
ENDBRANCH   1   7
BRANCH   4  16
ATOM     16  N   UNL     1       5.322  -3.464   0.625  1.00  0.00     0.066 N 
ATOM     17  O   UNL     1       4.995  -4.676   0.629  1.00  0.00    -0.258 OA
ATOM     18  O   UNL     1       5.208  -2.746  -0.396  1.00  0.00    -0.258 OA
ENDBRANCH   4  16
BRANCH   5  19
ATOM     19  O   UNL     1       5.065  -0.241   4.232  1.00  0.00    -0.504 OA
ATOM     20  H   UNL     1       5.347   0.600   3.834  1.00  0.00     0.293 HD
ENDBRANCH   5  19
BRANCH   6  21
ATOM     21  O   UNL     1       4.022  -1.326   1.917  1.00  0.00    -0.500 OA
ATOM     22  H   UNL     1       3.691  -1.921   1.227  1.00  0.00     0.294 HD
ENDBRANCH   6  21
TORSDOF 5
ENDMDL
