MODEL 1
REMARK VINA RESULT:    -7.120      0.000      0.000
REMARK INTER + INTRA:          -8.923
REMARK INTER:                  -8.369
REMARK INTRA:                  -0.554
REMARK UNBOUND:                -0.554
REMARK SMILES O=C(O)c1cc(-c2ccc(F)cc2F)ccc1O
REMARK SMILES IDX 6 1 5 2 15 3 4 4 17 5 16 6 7 7 13 8 12 9 8 10 10 11 9 12
REMARK SMILES IDX 14 13 11 14 2 15 1 16 3 17 18 19
REMARK H PARENT 3 18 18 20
ROOT
ATOM      1  C   UNL     1       6.826  -2.728   3.888  1.00  0.00    -0.014 A 
ATOM      2  C   UNL     1       6.034  -1.683   4.362  1.00  0.00     0.028 A 
ATOM      3  C   UNL     1       6.576  -3.278   2.631  1.00  0.00     0.013 A 
ATOM      4  C   UNL     1       4.991  -1.187   3.580  1.00  0.00     0.102 A 
ATOM      5  C   UNL     1       4.741  -1.736   2.322  1.00  0.00     0.130 A 
ATOM      6  C   UNL     1       5.534  -2.782   1.848  1.00  0.00     0.048 A 
ENDROOT
BRANCH   1   7
ATOM      7  C   UNL     1       7.907  -3.244   4.700  1.00  0.00     0.018 A 
ATOM      8  C   UNL     1       8.763  -2.366   5.367  1.00  0.00     0.133 A 
ATOM      9  C   UNL     1       9.804  -2.868   6.148  1.00  0.00     0.079 A 
ATOM     10  C   UNL     1       8.092  -4.622   4.815  1.00  0.00     0.015 A 
ATOM     11  C   UNL     1       9.989  -4.246   6.263  1.00  0.00     0.126 A 
ATOM     12  C   UNL     1       9.132  -5.122   5.597  1.00  0.00     0.040 A 
ATOM     13  F   UNL     1       8.601  -1.040   5.264  1.00  0.00    -0.206 F 
ATOM     14  F   UNL     1      10.988  -4.728   7.013  1.00  0.00    -0.207 F 
ENDBRANCH   1   7
BRANCH   4  15
ATOM     15  C   UNL     1       4.176  -0.095   4.093  1.00  0.00     0.339 C 
ATOM     16  O   UNL     1       2.948  -0.111   4.201  1.00  0.00    -0.246 OA
BRANCH  15  17
ATOM     17  O   UNL     1       4.923   0.983   4.456  1.00  0.00    -0.478 OA
ATOM     18  H   UNL     1       4.607   1.379   5.296  1.00  0.00     0.297 HD
ENDBRANCH  15  17
ENDBRANCH   4  15
BRANCH   5  19
ATOM     19  O   UNL     1       3.727  -1.266   1.542  1.00  0.00    -0.507 OA
ATOM     20  H   UNL     1       3.289  -0.529   2.002  1.00  0.00     0.293 HD
ENDBRANCH   5  19
TORSDOF 4
ENDMDL
MODEL 2
REMARK VINA RESULT:    -7.105      1.120      1.604
REMARK INTER + INTRA:          -8.905
REMARK INTER:                  -8.354
REMARK INTRA:                  -0.550
REMARK UNBOUND:                -0.554
REMARK SMILES O=C(O)c1cc(-c2ccc(F)cc2F)ccc1O
REMARK SMILES IDX 6 1 5 2 15 3 4 4 17 5 16 6 7 7 13 8 12 9 8 10 10 11 9 12
REMARK SMILES IDX 14 13 11 14 2 15 1 16 3 17 18 19
REMARK H PARENT 3 18 18 20
ROOT
ATOM      1  C   UNL     1       6.801  -2.751   3.897  1.00  0.00    -0.014 A 
ATOM      2  C   UNL     1       6.016  -1.700   4.368  1.00  0.00     0.028 A 
ATOM      3  C   UNL     1       6.549  -3.301   2.639  1.00  0.00     0.013 A 
ATOM      4  C   UNL     1       4.978  -1.196   3.583  1.00  0.00     0.102 A 
ATOM      5  C   UNL     1       4.726  -1.746   2.326  1.00  0.00     0.130 A 
ATOM      6  C   UNL     1       5.512  -2.798   1.854  1.00  0.00     0.048 A 
ENDROOT
BRANCH   1   7
ATOM      7  C   UNL     1       7.876  -3.275   4.711  1.00  0.00     0.018 A 
ATOM      8  C   UNL     1       8.047  -4.653   4.845  1.00  0.00     0.133 A 
ATOM      9  C   UNL     1       9.085  -5.153   5.631  1.00  0.00     0.079 A 
ATOM     10  C   UNL     1       8.744  -2.398   5.362  1.00  0.00     0.015 A 
ATOM     11  C   UNL     1       9.951  -4.277   6.283  1.00  0.00     0.126 A 
ATOM     12  C   UNL     1       9.781  -2.899   6.148  1.00  0.00     0.040 A 
ATOM     13  F   UNL     1       7.220  -5.509   4.228  1.00  0.00    -0.206 F 
ATOM     14  F   UNL     1      10.948  -4.756   7.038  1.00  0.00    -0.207 F 
ENDBRANCH   1   7
BRANCH   4  15
ATOM     15  C   UNL     1       4.171  -0.097   4.093  1.00  0.00     0.339 C 
ATOM     16  O   UNL     1       2.942  -0.106   4.203  1.00  0.00    -0.246 OA
BRANCH  15  17
ATOM     17  O   UNL     1       4.925   0.977   4.452  1.00  0.00    -0.478 OA
ATOM     18  H   UNL     1       5.619   0.735   5.100  1.00  0.00     0.297 HD
ENDBRANCH  15  17
ENDBRANCH   4  15
BRANCH   5  19
ATOM     19  O   UNL     1       3.718  -1.268   1.543  1.00  0.00    -0.507 OA
ATOM     20  H   UNL     1       4.056  -0.531   1.004  1.00  0.00     0.293 HD
ENDBRANCH   5  19
TORSDOF 4
ENDMDL
MODEL 3
REMARK VINA RESULT:    -7.092      1.234      2.717
REMARK INTER + INTRA:          -8.889
REMARK INTER:                  -8.345
REMARK INTRA:                  -0.544
REMARK UNBOUND:                -0.554
REMARK SMILES O=C(O)c1cc(-c2ccc(F)cc2F)ccc1O
REMARK SMILES IDX 6 1 5 2 15 3 4 4 17 5 16 6 7 7 13 8 12 9 8 10 10 11 9 12
REMARK SMILES IDX 14 13 11 14 2 15 1 16 3 17 18 19
REMARK H PARENT 3 18 18 20
ROOT
ATOM      1  C   UNL     1       6.792  -2.739   3.903  1.00  0.00    -0.014 A 
ATOM      2  C   UNL     1       6.568  -3.324   2.658  1.00  0.00     0.028 A 
ATOM      3  C   UNL     1       5.984  -1.687   4.335  1.00  0.00     0.013 A 
ATOM      4  C   UNL     1       5.535  -2.859   1.844  1.00  0.00     0.102 A 
ATOM      5  C   UNL     1       4.726  -1.808   2.276  1.00  0.00     0.130 A 
ATOM      6  C   UNL     1       4.951  -1.222   3.522  1.00  0.00     0.048 A 
ENDROOT
BRANCH   1   7
ATOM      7  C   UNL     1       7.865  -3.220   4.748  1.00  0.00     0.018 A 
ATOM      8  C   UNL     1       8.704  -2.314   5.398  1.00  0.00     0.133 A 
ATOM      9  C   UNL     1       9.737  -2.783   6.211  1.00  0.00     0.079 A 
ATOM     10  C   UNL     1       8.057  -4.591   4.911  1.00  0.00     0.015 A 
ATOM     11  C   UNL     1       9.929  -4.154   6.374  1.00  0.00     0.126 A 
ATOM     12  C   UNL     1       9.089  -5.058   5.724  1.00  0.00     0.040 A 
ATOM     13  F   UNL     1       8.534  -0.993   5.249  1.00  0.00    -0.206 F 
ATOM     14  F   UNL     1      10.920  -4.604   7.154  1.00  0.00    -0.207 F 
ENDBRANCH   1   7
BRANCH   4  15
ATOM     15  C   UNL     1       5.316  -3.485   0.547  1.00  0.00     0.339 C 
ATOM     16  O   UNL     1       5.289  -2.893  -0.535  1.00  0.00    -0.246 OA
BRANCH  15  17
ATOM     17  O   UNL     1       5.141  -4.831   0.644  1.00  0.00    -0.478 OA
ATOM     18  H   UNL     1       5.995  -5.305   0.727  1.00  0.00     0.297 HD
ENDBRANCH  15  17
ENDBRANCH   4  15
BRANCH   5  19
ATOM     19  O   UNL     1       3.711  -1.339   1.496  1.00  0.00    -0.507 OA
ATOM     20  H   UNL     1       2.862  -1.634   1.869  1.00  0.00     0.293 HD
ENDBRANCH   5  19
TORSDOF 4
ENDMDL
MODEL 4
REMARK VINA RESULT:    -5.358      1.018      1.057
REMARK INTER + INTRA:          -6.851
REMARK INTER:                  -6.383
REMARK INTRA:                  -0.469
REMARK UNBOUND:                -0.554
REMARK SMILES O=C(O)c1cc(-c2ccc(F)cc2F)ccc1O
REMARK SMILES IDX 6 1 5 2 15 3 4 4 17 5 16 6 7 7 13 8 12 9 8 10 10 11 9 12
REMARK SMILES IDX 14 13 11 14 2 15 1 16 3 17 18 19
REMARK H PARENT 3 18 18 20
ROOT
ATOM      1  C   UNL     1       7.082  -2.889   4.051  1.00  0.00    -0.014 A 
ATOM      2  C   UNL     1       6.296  -1.856   4.558  1.00  0.00     0.028 A 
ATOM      3  C   UNL     1       6.804  -3.424   2.793  1.00  0.00     0.013 A 
ATOM      4  C   UNL     1       5.230  -1.357   3.808  1.00  0.00     0.102 A 
ATOM      5  C   UNL     1       4.952  -1.892   2.550  1.00  0.00     0.130 A 
ATOM      6  C   UNL     1       5.740  -2.926   2.043  1.00  0.00     0.048 A 
ENDROOT
BRANCH   1   7
ATOM      7  C   UNL     1       8.187  -3.408   4.829  1.00  0.00     0.018 A 
ATOM      8  C   UNL     1       8.120  -3.414   6.223  1.00  0.00     0.133 A 
ATOM      9  C   UNL     1       9.187  -3.915   6.969  1.00  0.00     0.079 A 
ATOM     10  C   UNL     1       9.318  -3.904   4.182  1.00  0.00     0.015 A 
ATOM     11  C   UNL     1      10.319  -4.410   6.322  1.00  0.00     0.126 A 
ATOM     12  C   UNL     1      10.384  -4.405   4.929  1.00  0.00     0.040 A 
ATOM     13  F   UNL     1       7.041  -2.938   6.859  1.00  0.00    -0.206 F 
ATOM     14  F   UNL     1      11.344  -4.891   7.038  1.00  0.00    -0.207 F 
ENDBRANCH   1   7
BRANCH   4  15
ATOM     15  C   UNL     1       4.421  -0.277   4.356  1.00  0.00     0.339 C 
ATOM     16  O   UNL     1       3.215  -0.115   4.152  1.00  0.00    -0.246 OA
BRANCH  15  17
ATOM     17  O   UNL     1       5.145   0.566   5.141  1.00  0.00    -0.478 OA
ATOM     18  H   UNL     1       4.614   1.335   5.438  1.00  0.00     0.297 HD
ENDBRANCH  15  17
ENDBRANCH   4  15
BRANCH   5  19
ATOM     19  O   UNL     1       3.917  -1.418   1.801  1.00  0.00    -0.507 OA
ATOM     20  H   UNL     1       4.063  -1.658   0.870  1.00  0.00     0.293 HD
ENDBRANCH   5  19
TORSDOF 4
ENDMDL
MODEL 5
REMARK VINA RESULT:    -5.229      4.569      6.903
REMARK INTER + INTRA:          -6.700
REMARK INTER:                  -5.621
REMARK INTRA:                  -1.080
REMARK UNBOUND:                -0.554
REMARK SMILES O=C(O)c1cc(-c2ccc(F)cc2F)ccc1O
REMARK SMILES IDX 6 1 5 2 15 3 4 4 17 5 16 6 7 7 13 8 12 9 8 10 10 11 9 12
REMARK SMILES IDX 14 13 11 14 2 15 1 16 3 17 18 19
REMARK H PARENT 3 18 18 20
ROOT
ATOM      1  C   UNL     1       8.718  -3.820   5.293  1.00  0.00    -0.014 A 
ATOM      2  C   UNL     1       9.945  -4.254   4.792  1.00  0.00     0.028 A 
ATOM      3  C   UNL     1       8.500  -3.784   6.670  1.00  0.00     0.013 A 
ATOM      4  C   UNL     1      10.955  -4.652   5.669  1.00  0.00     0.102 A 
ATOM      5  C   UNL     1      10.737  -4.615   7.046  1.00  0.00     0.130 A 
ATOM      6  C   UNL     1       9.509  -4.181   7.547  1.00  0.00     0.048 A 
ENDROOT
BRANCH   1   7
ATOM      7  C   UNL     1       7.669  -3.409   4.384  1.00  0.00     0.018 A 
ATOM      8  C   UNL     1       6.804  -4.357   3.838  1.00  0.00     0.133 A 
ATOM      9  C   UNL     1       5.794  -3.956   2.962  1.00  0.00     0.079 A 
ATOM     10  C   UNL     1       7.525  -2.061   4.055  1.00  0.00     0.015 A 
ATOM     11  C   UNL     1       5.651  -2.609   2.633  1.00  0.00     0.126 A 
ATOM     12  C   UNL     1       6.516  -1.661   3.180  1.00  0.00     0.040 A 
ATOM     13  F   UNL     1       6.930  -5.657   4.142  1.00  0.00    -0.206 F 
ATOM     14  F   UNL     1       4.682  -2.223   1.793  1.00  0.00    -0.207 F 
ENDBRANCH   1   7
BRANCH   4  15
ATOM     15  C   UNL     1      12.229  -5.102   5.126  1.00  0.00     0.339 C 
ATOM     16  O   UNL     1      13.209  -5.442   5.794  1.00  0.00    -0.246 OA
BRANCH  15  17
ATOM     17  O   UNL     1      12.238  -5.113   3.765  1.00  0.00    -0.478 OA
ATOM     18  H   UNL     1      12.331  -6.021   3.409  1.00  0.00     0.297 HD
ENDBRANCH  15  17
ENDBRANCH   4  15
BRANCH   5  19
ATOM     19  O   UNL     1      11.711  -4.999   7.919  1.00  0.00    -0.507 OA
ATOM     20  H   UNL     1      12.559  -4.613   7.639  1.00  0.00     0.293 HD
ENDBRANCH   5  19
TORSDOF 4
ENDMDL
MODEL 6
REMARK VINA RESULT:    -5.208      4.183      6.441
REMARK INTER + INTRA:          -6.675
REMARK INTER:                  -5.614
REMARK INTRA:                  -1.061
REMARK UNBOUND:                -0.554
REMARK SMILES O=C(O)c1cc(-c2ccc(F)cc2F)ccc1O
REMARK SMILES IDX 6 1 5 2 15 3 4 4 17 5 16 6 7 7 13 8 12 9 8 10 10 11 9 12
REMARK SMILES IDX 14 13 11 14 2 15 1 16 3 17 18 19
REMARK H PARENT 3 18 18 20
ROOT
ATOM      1  C   UNL     1       8.731  -3.808   5.362  1.00  0.00    -0.014 A 
ATOM      2  C   UNL     1       8.548  -3.728   6.742  1.00  0.00     0.028 A 
ATOM      3  C   UNL     1       9.929  -4.300   4.845  1.00  0.00     0.013 A 
ATOM      4  C   UNL     1       9.563  -4.141   7.606  1.00  0.00     0.102 A 
ATOM      5  C   UNL     1      10.761  -4.633   7.088  1.00  0.00     0.130 A 
ATOM      6  C   UNL     1      10.944  -4.713   5.707  1.00  0.00     0.048 A 
ENDROOT
BRANCH   1   7
ATOM      7  C   UNL     1       7.679  -3.378   4.466  1.00  0.00     0.018 A 
ATOM      8  C   UNL     1       6.820  -4.317   3.894  1.00  0.00     0.133 A 
ATOM      9  C   UNL     1       5.807  -3.899   3.030  1.00  0.00     0.079 A 
ATOM     10  C   UNL     1       7.525  -2.023   4.175  1.00  0.00     0.015 A 
ATOM     11  C   UNL     1       5.654  -2.544   2.739  1.00  0.00     0.126 A 
ATOM     12  C   UNL     1       6.513  -1.606   3.312  1.00  0.00     0.040 A 
ATOM     13  F   UNL     1       6.956  -5.624   4.161  1.00  0.00    -0.206 F 
ATOM     14  F   UNL     1       4.682  -2.142   1.910  1.00  0.00    -0.207 F 
ENDBRANCH   1   7
BRANCH   4  15
ATOM     15  C   UNL     1       9.352  -4.051   9.044  1.00  0.00     0.339 C 
ATOM     16  O   UNL     1      10.228  -4.173   9.903  1.00  0.00    -0.246 OA
BRANCH  15  17
ATOM     17  O   UNL     1       8.051  -3.809   9.363  1.00  0.00    -0.478 OA
ATOM     18  H   UNL     1       7.474  -3.819   8.571  1.00  0.00     0.297 HD
ENDBRANCH  15  17
ENDBRANCH   4  15
BRANCH   5  19
ATOM     19  O   UNL     1      11.765  -5.042   7.915  1.00  0.00    -0.507 OA
ATOM     20  H   UNL     1      12.213  -5.808   7.515  1.00  0.00     0.293 HD
ENDBRANCH   5  19
TORSDOF 4
ENDMDL
MODEL 7
REMARK VINA RESULT:    -5.193      4.040      6.268
REMARK INTER + INTRA:          -6.658
REMARK INTER:                  -5.599
REMARK INTRA:                  -1.059
REMARK UNBOUND:                -0.554
REMARK SMILES O=C(O)c1cc(-c2ccc(F)cc2F)ccc1O
REMARK SMILES IDX 6 1 5 2 15 3 4 4 17 5 16 6 7 7 13 8 12 9 8 10 10 11 9 12
REMARK SMILES IDX 14 13 11 14 2 15 1 16 3 17 18 19
REMARK H PARENT 3 18 18 20
ROOT
ATOM      1  C   UNL     1       8.725  -3.583   5.481  1.00  0.00    -0.014 A 
ATOM      2  C   UNL     1       8.588  -3.597   6.869  1.00  0.00     0.028 A 
ATOM      3  C   UNL     1       9.886  -4.082   4.890  1.00  0.00     0.013 A 
ATOM      4  C   UNL     1       9.612  -4.108   7.666  1.00  0.00     0.102 A 
ATOM      5  C   UNL     1      10.773  -4.607   7.075  1.00  0.00     0.130 A 
ATOM      6  C   UNL     1      10.910  -4.594   5.687  1.00  0.00     0.048 A 
ENDROOT
BRANCH   1   7
ATOM      7  C   UNL     1       7.664  -3.051   4.653  1.00  0.00     0.018 A 
ATOM      8  C   UNL     1       7.551  -1.674   4.459  1.00  0.00     0.133 A 
ATOM      9  C   UNL     1       6.526  -1.166   3.660  1.00  0.00     0.079 A 
ATOM     10  C   UNL     1       6.754  -3.919   4.049  1.00  0.00     0.015 A 
ATOM     11  C   UNL     1       5.616  -2.033   3.056  1.00  0.00     0.126 A 
ATOM     12  C   UNL     1       5.731  -3.410   3.250  1.00  0.00     0.040 A 
ATOM     13  F   UNL     1       8.415  -0.827   5.035  1.00  0.00    -0.206 F 
ATOM     14  F   UNL     1       4.633  -1.545   2.289  1.00  0.00    -0.207 F 
ENDBRANCH   1   7
BRANCH   4  15
ATOM     15  C   UNL     1       9.449  -4.113   9.114  1.00  0.00     0.339 C 
ATOM     16  O   UNL     1      10.362  -4.232   9.934  1.00  0.00    -0.246 OA
BRANCH  15  17
ATOM     17  O   UNL     1       8.149  -3.969   9.489  1.00  0.00    -0.478 OA
ATOM     18  H   UNL     1       7.882  -4.646  10.145  1.00  0.00     0.297 HD
ENDBRANCH  15  17
ENDBRANCH   4  15
BRANCH   5  19
ATOM     19  O   UNL     1      11.784  -5.112   7.837  1.00  0.00    -0.507 OA
ATOM     20  H   UNL     1      11.653  -4.838   8.761  1.00  0.00     0.293 HD
ENDBRANCH   5  19
TORSDOF 4
ENDMDL
MODEL 8
REMARK VINA RESULT:    -4.279      2.216      3.419
REMARK INTER + INTRA:          -5.583
REMARK INTER:                  -4.607
REMARK INTRA:                  -0.976
REMARK UNBOUND:                -0.554
REMARK SMILES O=C(O)c1cc(-c2ccc(F)cc2F)ccc1O
REMARK SMILES IDX 6 1 5 2 15 3 4 4 17 5 16 6 7 7 13 8 12 9 8 10 10 11 9 12
REMARK SMILES IDX 14 13 11 14 2 15 1 16 3 17 18 19
REMARK H PARENT 3 18 18 20
ROOT
ATOM      1  C   UNL     1       8.142  -3.024   4.961  1.00  0.00    -0.014 A 
ATOM      2  C   UNL     1       7.499  -3.935   4.124  1.00  0.00     0.028 A 
ATOM      3  C   UNL     1       8.024  -1.655   4.724  1.00  0.00     0.013 A 
ATOM      4  C   UNL     1       6.738  -3.477   3.049  1.00  0.00     0.102 A 
ATOM      5  C   UNL     1       6.620  -2.108   2.811  1.00  0.00     0.130 A 
ATOM      6  C   UNL     1       7.263  -1.196   3.649  1.00  0.00     0.048 A 
ENDROOT
BRANCH   1   7
ATOM      7  C   UNL     1       8.934  -3.498   6.076  1.00  0.00     0.018 A 
ATOM      8  C   UNL     1      10.141  -4.160   5.847  1.00  0.00     0.133 A 
ATOM      9  C   UNL     1      10.900  -4.616   6.925  1.00  0.00     0.079 A 
ATOM     10  C   UNL     1       8.488  -3.292   7.381  1.00  0.00     0.015 A 
ATOM     11  C   UNL     1      10.454  -4.410   8.230  1.00  0.00     0.126 A 
ATOM     12  C   UNL     1       9.248  -3.747   8.458  1.00  0.00     0.040 A 
ATOM     13  F   UNL     1      10.582  -4.369   4.599  1.00  0.00    -0.206 F 
ATOM     14  F   UNL     1      11.183  -4.847   9.265  1.00  0.00    -0.207 F 
ENDBRANCH   1   7
BRANCH   4  15
ATOM     15  C   UNL     1       6.073  -4.445   2.186  1.00  0.00     0.339 C 
ATOM     16  O   UNL     1       5.698  -4.232   1.031  1.00  0.00    -0.246 OA
BRANCH  15  17
ATOM     17  O   UNL     1       5.900  -5.649   2.796  1.00  0.00    -0.478 OA
ATOM     18  H   UNL     1       6.077  -6.395   2.185  1.00  0.00     0.297 HD
ENDBRANCH  15  17
ENDBRANCH   4  15
BRANCH   5  19
ATOM     19  O   UNL     1       5.880  -1.640   1.766  1.00  0.00    -0.507 OA
ATOM     20  H   UNL     1       6.447  -1.092   1.196  1.00  0.00     0.293 HD
ENDBRANCH   5  19
TORSDOF 4
ENDMDL
