MODEL 1
REMARK VINA RESULT:    -6.944      0.000      0.000
REMARK INTER + INTRA:          -8.717
REMARK INTER:                  -8.162
REMARK INTRA:                  -0.555
REMARK UNBOUND:                -0.555
REMARK SMILES O=C(O)c1cc(-c2ccc(F)cc2F)ccc1O
REMARK SMILES IDX 6 1 5 2 15 3 4 4 17 5 16 6 7 7 13 8 12 9 8 10 10 11 9 12
REMARK SMILES IDX 14 13 11 14 2 15 1 16 3 17 18 19
REMARK H PARENT 3 18 18 20
ROOT
ATOM      1  C   UNL     1       7.817   2.158  -1.431  1.00  0.00    -0.014 A 
ATOM      2  C   UNL     1       7.839   0.846  -1.904  1.00  0.00     0.028 A 
ATOM      3  C   UNL     1       6.619   2.720  -0.989  1.00  0.00     0.013 A 
ATOM      4  C   UNL     1       6.664   0.095  -1.935  1.00  0.00     0.102 A 
ATOM      5  C   UNL     1       5.466   0.657  -1.493  1.00  0.00     0.130 A 
ATOM      6  C   UNL     1       5.443   1.970  -1.020  1.00  0.00     0.048 A 
ENDROOT
BRANCH   1   7
ATOM      7  C   UNL     1       9.035   2.938  -1.400  1.00  0.00     0.018 A 
ATOM      8  C   UNL     1      10.224   2.362  -0.950  1.00  0.00     0.133 A 
ATOM      9  C   UNL     1      11.397   3.117  -0.921  1.00  0.00     0.079 A 
ATOM     10  C   UNL     1       9.020   4.267  -1.821  1.00  0.00     0.015 A 
ATOM     11  C   UNL     1      11.381   4.447  -1.342  1.00  0.00     0.126 A 
ATOM     12  C   UNL     1      10.192   5.021  -1.792  1.00  0.00     0.040 A 
ATOM     13  F   UNL     1      10.255   1.086  -0.538  1.00  0.00    -0.206 F 
ATOM     14  F   UNL     1      12.506   5.172  -1.314  1.00  0.00    -0.207 F 
ENDBRANCH   1   7
BRANCH   4  15
ATOM     15  C   UNL     1       6.708  -1.273  -2.432  1.00  0.00     0.339 C 
ATOM     16  O   UNL     1       5.987  -1.734  -3.319  1.00  0.00    -0.246 OA
BRANCH  15  17
ATOM     17  O   UNL     1       7.656  -2.021  -1.804  1.00  0.00    -0.478 OA
ATOM     18  H   UNL     1       7.812  -1.717  -0.886  1.00  0.00     0.297 HD
ENDBRANCH  15  17
ENDBRANCH   4  15
BRANCH   5  19
ATOM     19  O   UNL     1       4.307  -0.060  -1.515  1.00  0.00    -0.507 OA
ATOM     20  H   UNL     1       4.337  -0.690  -2.256  1.00  0.00     0.293 HD
ENDBRANCH   5  19
TORSDOF 4
ENDMDL
MODEL 2
REMARK VINA RESULT:    -6.938      1.658      3.155
REMARK INTER + INTRA:          -8.709
REMARK INTER:                  -8.152
REMARK INTRA:                  -0.558
REMARK UNBOUND:                -0.555
REMARK SMILES O=C(O)c1cc(-c2ccc(F)cc2F)ccc1O
REMARK SMILES IDX 6 1 5 2 15 3 4 4 17 5 16 6 7 7 13 8 12 9 8 10 10 11 9 12
REMARK SMILES IDX 14 13 11 14 2 15 1 16 3 17 18 19
REMARK H PARENT 3 18 18 20
ROOT
ATOM      1  C   UNL     1       7.803   2.177  -1.510  1.00  0.00    -0.014 A 
ATOM      2  C   UNL     1       6.628   2.777  -1.060  1.00  0.00     0.028 A 
ATOM      3  C   UNL     1       7.782   0.861  -1.971  1.00  0.00     0.013 A 
ATOM      4  C   UNL     1       5.430   2.061  -1.069  1.00  0.00     0.102 A 
ATOM      5  C   UNL     1       5.409   0.744  -1.529  1.00  0.00     0.130 A 
ATOM      6  C   UNL     1       6.585   0.144  -1.981  1.00  0.00     0.048 A 
ENDROOT
BRANCH   1   7
ATOM      7  C   UNL     1       9.045   2.919  -1.500  1.00  0.00     0.018 A 
ATOM      8  C   UNL     1       9.072   4.246  -1.929  1.00  0.00     0.133 A 
ATOM      9  C   UNL     1      10.272   4.958  -1.917  1.00  0.00     0.079 A 
ATOM     10  C   UNL     1      10.217   2.304  -1.058  1.00  0.00     0.015 A 
ATOM     11  C   UNL     1      11.444   4.343  -1.476  1.00  0.00     0.126 A 
ATOM     12  C   UNL     1      11.415   3.016  -1.046  1.00  0.00     0.040 A 
ATOM     13  F   UNL     1       7.956   4.851  -2.359  1.00  0.00    -0.206 F 
ATOM     14  F   UNL     1      12.596   5.025  -1.465  1.00  0.00    -0.207 F 
ENDBRANCH   1   7
BRANCH   4  15
ATOM     15  C   UNL     1       4.214   2.706  -0.594  1.00  0.00     0.339 C 
ATOM     16  O   UNL     1       3.455   2.252   0.266  1.00  0.00    -0.246 OA
BRANCH  15  17
ATOM     17  O   UNL     1       3.985   3.898  -1.209  1.00  0.00    -0.478 OA
ATOM     18  H   UNL     1       3.458   3.791  -2.029  1.00  0.00     0.297 HD
ENDBRANCH  15  17
ENDBRANCH   4  15
BRANCH   5  19
ATOM     19  O   UNL     1       4.250   0.028  -1.547  1.00  0.00    -0.507 OA
ATOM     20  H   UNL     1       3.496   0.643  -1.535  1.00  0.00     0.293 HD
ENDBRANCH   5  19
TORSDOF 4
ENDMDL
MODEL 3
REMARK VINA RESULT:    -6.916      1.238      2.718
REMARK INTER + INTRA:          -8.683
REMARK INTER:                  -8.139
REMARK INTRA:                  -0.544
REMARK UNBOUND:                -0.555
REMARK SMILES O=C(O)c1cc(-c2ccc(F)cc2F)ccc1O
REMARK SMILES IDX 6 1 5 2 15 3 4 4 17 5 16 6 7 7 13 8 12 9 8 10 10 11 9 12
REMARK SMILES IDX 14 13 11 14 2 15 1 16 3 17 18 19
REMARK H PARENT 3 18 18 20
ROOT
ATOM      1  C   UNL     1       7.806   2.163  -1.481  1.00  0.00    -0.014 A 
ATOM      2  C   UNL     1       6.630   2.767  -1.039  1.00  0.00     0.028 A 
ATOM      3  C   UNL     1       7.784   0.846  -1.939  1.00  0.00     0.013 A 
ATOM      4  C   UNL     1       5.431   2.054  -1.054  1.00  0.00     0.102 A 
ATOM      5  C   UNL     1       5.409   0.737  -1.512  1.00  0.00     0.130 A 
ATOM      6  C   UNL     1       6.586   0.132  -1.954  1.00  0.00     0.048 A 
ENDROOT
BRANCH   1   7
ATOM      7  C   UNL     1       9.051   2.902  -1.465  1.00  0.00     0.018 A 
ATOM      8  C   UNL     1      10.220   2.294  -1.005  1.00  0.00     0.133 A 
ATOM      9  C   UNL     1      11.417   3.010  -0.991  1.00  0.00     0.079 A 
ATOM     10  C   UNL     1       9.080   4.223  -1.910  1.00  0.00     0.015 A 
ATOM     11  C   UNL     1      11.446   4.331  -1.435  1.00  0.00     0.126 A 
ATOM     12  C   UNL     1      10.277   4.937  -1.896  1.00  0.00     0.040 A 
ATOM     13  F   UNL     1      10.208   1.026  -0.571  1.00  0.00    -0.206 F 
ATOM     14  F   UNL     1      12.595   5.019  -1.422  1.00  0.00    -0.207 F 
ENDBRANCH   1   7
BRANCH   4  15
ATOM     15  C   UNL     1       4.213   2.703  -0.589  1.00  0.00     0.339 C 
ATOM     16  O   UNL     1       3.450   2.256   0.271  1.00  0.00    -0.246 OA
BRANCH  15  17
ATOM     17  O   UNL     1       3.989   3.892  -1.212  1.00  0.00    -0.478 OA
ATOM     18  H   UNL     1       4.407   4.639  -0.733  1.00  0.00     0.297 HD
ENDBRANCH  15  17
ENDBRANCH   4  15
BRANCH   5  19
ATOM     19  O   UNL     1       4.248   0.023  -1.535  1.00  0.00    -0.507 OA
ATOM     20  H   UNL     1       3.533   0.591  -1.870  1.00  0.00     0.293 HD
ENDBRANCH   5  19
TORSDOF 4
ENDMDL
MODEL 4
REMARK VINA RESULT:    -5.202      4.564      6.886
REMARK INTER + INTRA:          -6.669
REMARK INTER:                  -5.591
REMARK INTRA:                  -1.079
REMARK UNBOUND:                -0.555
REMARK SMILES O=C(O)c1cc(-c2ccc(F)cc2F)ccc1O
REMARK SMILES IDX 6 1 5 2 15 3 4 4 17 5 16 6 7 7 13 8 12 9 8 10 10 11 9 12
REMARK SMILES IDX 14 13 11 14 2 15 1 16 3 17 18 19
REMARK H PARENT 3 18 18 20
ROOT
ATOM      1  C   UNL     1       9.814   3.672  -1.398  1.00  0.00    -0.014 A 
ATOM      2  C   UNL     1      10.163   4.602  -0.420  1.00  0.00     0.028 A 
ATOM      3  C   UNL     1      10.715   3.358  -2.416  1.00  0.00     0.013 A 
ATOM      4  C   UNL     1      11.414   5.220  -0.459  1.00  0.00     0.102 A 
ATOM      5  C   UNL     1      12.315   4.905  -1.477  1.00  0.00     0.130 A 
ATOM      6  C   UNL     1      11.965   3.974  -2.456  1.00  0.00     0.048 A 
ENDROOT
BRANCH   1   7
ATOM      7  C   UNL     1       8.516   3.033  -1.359  1.00  0.00     0.018 A 
ATOM      8  C   UNL     1       7.410   3.656  -1.937  1.00  0.00     0.133 A 
ATOM      9  C   UNL     1       6.161   3.036  -1.897  1.00  0.00     0.079 A 
ATOM     10  C   UNL     1       8.373   1.790  -0.743  1.00  0.00     0.015 A 
ATOM     11  C   UNL     1       6.018   1.794  -1.280  1.00  0.00     0.126 A 
ATOM     12  C   UNL     1       7.125   1.171  -0.703  1.00  0.00     0.040 A 
ATOM     13  F   UNL     1       7.530   4.852  -2.531  1.00  0.00    -0.206 F 
ATOM     14  F   UNL     1       4.819   1.199  -1.241  1.00  0.00    -0.207 F 
ENDBRANCH   1   7
BRANCH   4  15
ATOM     15  C   UNL     1      11.760   6.188   0.572  1.00  0.00     0.339 C 
ATOM     16  O   UNL     1      12.872   6.700   0.726  1.00  0.00    -0.246 OA
BRANCH  15  17
ATOM     17  O   UNL     1      10.705   6.487   1.377  1.00  0.00    -0.478 OA
ATOM     18  H   UNL     1      10.187   7.245   1.033  1.00  0.00     0.297 HD
ENDBRANCH  15  17
ENDBRANCH   4  15
BRANCH   5  19
ATOM     19  O   UNL     1      13.542   5.497  -1.533  1.00  0.00    -0.507 OA
ATOM     20  H   UNL     1      13.484   6.385  -1.140  1.00  0.00     0.293 HD
ENDBRANCH   5  19
TORSDOF 4
ENDMDL
MODEL 5
REMARK VINA RESULT:    -5.201      4.035      6.272
REMARK INTER + INTRA:          -6.667
REMARK INTER:                  -5.585
REMARK INTRA:                  -1.082
REMARK UNBOUND:                -0.555
REMARK SMILES O=C(O)c1cc(-c2ccc(F)cc2F)ccc1O
REMARK SMILES IDX 6 1 5 2 15 3 4 4 17 5 16 6 7 7 13 8 12 9 8 10 10 11 9 12
REMARK SMILES IDX 14 13 11 14 2 15 1 16 3 17 18 19
REMARK H PARENT 3 18 18 20
ROOT
ATOM      1  C   UNL     1      10.058   3.273  -1.476  1.00  0.00    -0.014 A 
ATOM      2  C   UNL     1      11.066   3.197  -2.437  1.00  0.00     0.028 A 
ATOM      3  C   UNL     1      10.155   4.195  -0.434  1.00  0.00     0.013 A 
ATOM      4  C   UNL     1      12.171   4.044  -2.356  1.00  0.00     0.102 A 
ATOM      5  C   UNL     1      12.268   4.967  -1.314  1.00  0.00     0.130 A 
ATOM      6  C   UNL     1      11.260   5.042  -0.353  1.00  0.00     0.048 A 
ENDROOT
BRANCH   1   7
ATOM      7  C   UNL     1       8.911   2.394  -1.558  1.00  0.00     0.018 A 
ATOM      8  C   UNL     1       8.960   1.123  -0.984  1.00  0.00     0.133 A 
ATOM      9  C   UNL     1       7.853   0.279  -1.065  1.00  0.00     0.079 A 
ATOM     10  C   UNL     1       7.756   2.819  -2.212  1.00  0.00     0.015 A 
ATOM     11  C   UNL     1       6.698   0.704  -1.720  1.00  0.00     0.126 A 
ATOM     12  C   UNL     1       6.649   1.975  -2.293  1.00  0.00     0.040 A 
ATOM     13  F   UNL     1      10.064   0.697  -0.353  1.00  0.00    -0.206 F 
ATOM     14  F   UNL     1       5.634  -0.106  -1.799  1.00  0.00    -0.207 F 
ENDBRANCH   1   7
BRANCH   4  15
ATOM     15  C   UNL     1      13.213   3.950  -3.370  1.00  0.00     0.339 C 
ATOM     16  O   UNL     1      14.208   4.676  -3.440  1.00  0.00    -0.246 OA
BRANCH  15  17
ATOM     17  O   UNL     1      12.979   2.950  -4.262  1.00  0.00    -0.478 OA
ATOM     18  H   UNL     1      13.780   2.730  -4.783  1.00  0.00     0.297 HD
ENDBRANCH  15  17
ENDBRANCH   4  15
BRANCH   5  19
ATOM     19  O   UNL     1      13.340   5.804  -1.218  1.00  0.00    -0.507 OA
ATOM     20  H   UNL     1      13.986   5.422  -0.598  1.00  0.00     0.293 HD
ENDBRANCH   5  19
TORSDOF 4
ENDMDL
MODEL 6
REMARK VINA RESULT:    -5.151      4.324      6.638
REMARK INTER + INTRA:          -6.609
REMARK INTER:                  -5.546
REMARK INTRA:                  -1.063
REMARK UNBOUND:                -0.555
REMARK SMILES O=C(O)c1cc(-c2ccc(F)cc2F)ccc1O
REMARK SMILES IDX 6 1 5 2 15 3 4 4 17 5 16 6 7 7 13 8 12 9 8 10 10 11 9 12
REMARK SMILES IDX 14 13 11 14 2 15 1 16 3 17 18 19
REMARK H PARENT 3 18 18 20
ROOT
ATOM      1  C   UNL     1      10.042   3.367  -1.412  1.00  0.00    -0.014 A 
ATOM      2  C   UNL     1      10.169   4.321  -0.403  1.00  0.00     0.028 A 
ATOM      3  C   UNL     1      11.047   3.227  -2.370  1.00  0.00     0.013 A 
ATOM      4  C   UNL     1      11.301   5.135  -0.350  1.00  0.00     0.102 A 
ATOM      5  C   UNL     1      12.305   4.995  -1.308  1.00  0.00     0.130 A 
ATOM      6  C   UNL     1      12.178   4.040  -2.318  1.00  0.00     0.048 A 
ENDROOT
BRANCH   1   7
ATOM      7  C   UNL     1       8.868   2.523  -1.468  1.00  0.00     0.018 A 
ATOM      8  C   UNL     1       8.909   1.230  -0.946  1.00  0.00     0.133 A 
ATOM      9  C   UNL     1       7.775   0.420  -1.002  1.00  0.00     0.079 A 
ATOM     10  C   UNL     1       7.693   3.006  -2.044  1.00  0.00     0.015 A 
ATOM     11  C   UNL     1       6.601   0.902  -1.579  1.00  0.00     0.126 A 
ATOM     12  C   UNL     1       6.560   2.196  -2.100  1.00  0.00     0.040 A 
ATOM     13  F   UNL     1      10.031   0.750  -0.391  1.00  0.00    -0.206 F 
ATOM     14  F   UNL     1       5.511   0.125  -1.633  1.00  0.00    -0.207 F 
ENDBRANCH   1   7
BRANCH   4  15
ATOM     15  C   UNL     1      11.415   6.124   0.712  1.00  0.00     0.339 C 
ATOM     16  O   UNL     1      12.264   7.017   0.768  1.00  0.00    -0.246 OA
BRANCH  15  17
ATOM     17  O   UNL     1      10.462   5.968   1.671  1.00  0.00    -0.478 OA
ATOM     18  H   UNL     1      10.422   6.738   2.275  1.00  0.00     0.297 HD
ENDBRANCH  15  17
ENDBRANCH   4  15
BRANCH   5  19
ATOM     19  O   UNL     1      13.419   5.780  -1.274  1.00  0.00    -0.507 OA
ATOM     20  H   UNL     1      13.501   6.252  -2.121  1.00  0.00     0.293 HD
ENDBRANCH   5  19
TORSDOF 4
ENDMDL
MODEL 7
REMARK VINA RESULT:    -5.129      4.173      6.448
REMARK INTER + INTRA:          -6.583
REMARK INTER:                  -5.522
REMARK INTRA:                  -1.061
REMARK UNBOUND:                -0.555
REMARK SMILES O=C(O)c1cc(-c2ccc(F)cc2F)ccc1O
REMARK SMILES IDX 6 1 5 2 15 3 4 4 17 5 16 6 7 7 13 8 12 9 8 10 10 11 9 12
REMARK SMILES IDX 14 13 11 14 2 15 1 16 3 17 18 19
REMARK H PARENT 3 18 18 20
ROOT
ATOM      1  C   UNL     1       9.971   3.473  -1.452  1.00  0.00    -0.014 A 
ATOM      2  C   UNL     1      10.949   3.326  -2.434  1.00  0.00     0.028 A 
ATOM      3  C   UNL     1      10.156   4.387  -0.414  1.00  0.00     0.013 A 
ATOM      4  C   UNL     1      12.113   4.092  -2.381  1.00  0.00     0.102 A 
ATOM      5  C   UNL     1      12.299   5.006  -1.343  1.00  0.00     0.130 A 
ATOM      6  C   UNL     1      11.320   5.153  -0.360  1.00  0.00     0.048 A 
ENDROOT
BRANCH   1   7
ATOM      7  C   UNL     1       8.763   2.678  -1.506  1.00  0.00     0.018 A 
ATOM      8  C   UNL     1       7.589   3.222  -2.029  1.00  0.00     0.133 A 
ATOM      9  C   UNL     1       6.427   2.452  -2.079  1.00  0.00     0.079 A 
ATOM     10  C   UNL     1       8.775   1.365  -1.037  1.00  0.00     0.015 A 
ATOM     11  C   UNL     1       6.438   1.139  -1.609  1.00  0.00     0.126 A 
ATOM     12  C   UNL     1       7.613   0.595  -1.088  1.00  0.00     0.040 A 
ATOM     13  F   UNL     1       7.560   4.483  -2.481  1.00  0.00    -0.206 F 
ATOM     14  F   UNL     1       5.323   0.399  -1.657  1.00  0.00    -0.207 F 
ENDBRANCH   1   7
BRANCH   4  15
ATOM     15  C   UNL     1      13.123   3.923  -3.417  1.00  0.00     0.339 C 
ATOM     16  O   UNL     1      14.103   4.653  -3.584  1.00  0.00    -0.246 OA
BRANCH  15  17
ATOM     17  O   UNL     1      12.876   2.846  -4.210  1.00  0.00    -0.478 OA
ATOM     18  H   UNL     1      13.273   2.949  -5.100  1.00  0.00     0.297 HD
ENDBRANCH  15  17
ENDBRANCH   4  15
BRANCH   5  19
ATOM     19  O   UNL     1      13.429   5.764  -1.273  1.00  0.00    -0.507 OA
ATOM     20  H   UNL     1      13.831   5.818  -2.157  1.00  0.00     0.293 HD
ENDBRANCH   5  19
TORSDOF 4
ENDMDL
MODEL 8
REMARK VINA RESULT:    -4.476      1.515      1.817
REMARK INTER + INTRA:          -5.816
REMARK INTER:                  -4.870
REMARK INTRA:                  -0.946
REMARK UNBOUND:                -0.555
REMARK SMILES O=C(O)c1cc(-c2ccc(F)cc2F)ccc1O
REMARK SMILES IDX 6 1 5 2 15 3 4 4 17 5 16 6 7 7 13 8 12 9 8 10 10 11 9 12
REMARK SMILES IDX 14 13 11 14 2 15 1 16 3 17 18 19
REMARK H PARENT 3 18 18 20
ROOT
ATOM      1  C   UNL     1       8.793   3.028  -1.601  1.00  0.00    -0.014 A 
ATOM      2  C   UNL     1       8.894   1.644  -1.463  1.00  0.00     0.028 A 
ATOM      3  C   UNL     1       7.600   3.599  -2.043  1.00  0.00     0.013 A 
ATOM      4  C   UNL     1       7.802   0.831  -1.767  1.00  0.00     0.102 A 
ATOM      5  C   UNL     1       6.609   1.402  -2.209  1.00  0.00     0.130 A 
ATOM      6  C   UNL     1       6.508   2.787  -2.347  1.00  0.00     0.048 A 
ENDROOT
BRANCH   1   7
ATOM      7  C   UNL     1       9.926   3.872  -1.287  1.00  0.00     0.018 A 
ATOM      8  C   UNL     1      11.086   3.804  -2.060  1.00  0.00     0.133 A 
ATOM      9  C   UNL     1      12.175   4.619  -1.754  1.00  0.00     0.079 A 
ATOM     10  C   UNL     1       9.855   4.757  -0.211  1.00  0.00     0.015 A 
ATOM     11  C   UNL     1      12.105   5.503  -0.677  1.00  0.00     0.126 A 
ATOM     12  C   UNL     1      10.945   5.572   0.093  1.00  0.00     0.040 A 
ATOM     13  F   UNL     1      11.171   2.957  -3.096  1.00  0.00    -0.206 F 
ATOM     14  F   UNL     1      13.151   6.286  -0.383  1.00  0.00    -0.207 F 
ENDBRANCH   1   7
BRANCH   4  15
ATOM     15  C   UNL     1       7.928  -0.612  -1.615  1.00  0.00     0.339 C 
ATOM     16  O   UNL     1       7.148  -1.449  -2.075  1.00  0.00    -0.246 OA
BRANCH  15  17
ATOM     17  O   UNL     1       9.028  -0.964  -0.894  1.00  0.00    -0.478 OA
ATOM     18  H   UNL     1       8.792  -1.494  -0.104  1.00  0.00     0.297 HD
ENDBRANCH  15  17
ENDBRANCH   4  15
BRANCH   5  19
ATOM     19  O   UNL     1       5.530   0.625  -2.510  1.00  0.00    -0.507 OA
ATOM     20  H   UNL     1       4.722   1.162  -2.438  1.00  0.00     0.293 HD
ENDBRANCH   5  19
TORSDOF 4
ENDMDL
