MODEL 1
REMARK VINA RESULT:    -7.151      0.000      0.000
REMARK INTER + INTRA:          -9.037
REMARK INTER:                  -8.405
REMARK INTRA:                  -0.632
REMARK UNBOUND:                -0.632
REMARK SMILES O=C(O)c1cc(-c2ccc(F)cc2F)ccc1O
REMARK SMILES IDX 6 1 5 2 15 3 4 4 17 5 16 6 7 7 13 8 12 9 8 10 10 11 9 12
REMARK SMILES IDX 14 13 11 14 2 15 1 16 3 17 18 19
REMARK H PARENT 3 18 18 20
ROOT
ATOM      1  C   UNL     1       4.479  -1.117  -8.891  1.00  0.00    -0.014 A 
ATOM      2  C   UNL     1       4.446   0.197  -8.425  1.00  0.00     0.028 A 
ATOM      3  C   UNL     1       3.893  -2.138  -8.144  1.00  0.00     0.013 A 
ATOM      4  C   UNL     1       3.826   0.490  -7.209  1.00  0.00     0.102 A 
ATOM      5  C   UNL     1       3.240  -0.531  -6.462  1.00  0.00     0.130 A 
ATOM      6  C   UNL     1       3.273  -1.846  -6.929  1.00  0.00     0.048 A 
ENDROOT
BRANCH   1   7
ATOM      7  C   UNL     1       5.123  -1.422 -10.151  1.00  0.00     0.018 A 
ATOM      8  C   UNL     1       4.880  -0.628 -11.272  1.00  0.00     0.133 A 
ATOM      9  C   UNL     1       5.502  -0.926 -12.485  1.00  0.00     0.079 A 
ATOM     10  C   UNL     1       5.989  -2.511 -10.242  1.00  0.00     0.015 A 
ATOM     11  C   UNL     1       6.367  -2.015 -12.576  1.00  0.00     0.126 A 
ATOM     12  C   UNL     1       6.611  -2.808 -11.454  1.00  0.00     0.040 A 
ATOM     13  F   UNL     1       4.048   0.421 -11.203  1.00  0.00    -0.206 F 
ATOM     14  F   UNL     1       6.965  -2.302 -13.739  1.00  0.00    -0.207 F 
ENDBRANCH   1   7
BRANCH   4  15
ATOM     15  C   UNL     1       3.801   1.868  -6.739  1.00  0.00     0.339 C 
ATOM     16  O   UNL     1       4.060   2.235  -5.591  1.00  0.00    -0.246 OA
BRANCH  15  17
ATOM     17  O   UNL     1       3.456   2.744  -7.721  1.00  0.00    -0.478 OA
ATOM     18  H   UNL     1       3.781   2.455  -8.600  1.00  0.00     0.297 HD
ENDBRANCH  15  17
ENDBRANCH   4  15
BRANCH   5  19
ATOM     19  O   UNL     1       2.629  -0.266  -5.272  1.00  0.00    -0.507 OA
ATOM     20  H   UNL     1       1.675  -0.437  -5.361  1.00  0.00     0.293 HD
ENDBRANCH   5  19
TORSDOF 4
ENDMDL
MODEL 2
REMARK VINA RESULT:    -7.122      1.120      1.605
REMARK INTER + INTRA:          -9.003
REMARK INTER:                  -8.384
REMARK INTRA:                  -0.619
REMARK UNBOUND:                -0.632
REMARK SMILES O=C(O)c1cc(-c2ccc(F)cc2F)ccc1O
REMARK SMILES IDX 6 1 5 2 15 3 4 4 17 5 16 6 7 7 13 8 12 9 8 10 10 11 9 12
REMARK SMILES IDX 14 13 11 14 2 15 1 16 3 17 18 19
REMARK H PARENT 3 18 18 20
ROOT
ATOM      1  C   UNL     1       4.511  -1.133  -8.878  1.00  0.00    -0.014 A 
ATOM      2  C   UNL     1       4.468   0.183  -8.418  1.00  0.00     0.028 A 
ATOM      3  C   UNL     1       3.928  -2.154  -8.128  1.00  0.00     0.013 A 
ATOM      4  C   UNL     1       3.841   0.478  -7.207  1.00  0.00     0.102 A 
ATOM      5  C   UNL     1       3.259  -0.543  -6.456  1.00  0.00     0.130 A 
ATOM      6  C   UNL     1       3.302  -1.859  -6.917  1.00  0.00     0.048 A 
ENDROOT
BRANCH   1   7
ATOM      7  C   UNL     1       5.162  -1.440 -10.134  1.00  0.00     0.018 A 
ATOM      8  C   UNL     1       6.039  -2.521 -10.222  1.00  0.00     0.133 A 
ATOM      9  C   UNL     1       6.665  -2.814 -11.434  1.00  0.00     0.079 A 
ATOM     10  C   UNL     1       4.909  -0.653 -11.258  1.00  0.00     0.015 A 
ATOM     11  C   UNL     1       6.412  -2.027 -12.557  1.00  0.00     0.126 A 
ATOM     12  C   UNL     1       5.534  -0.947 -12.469  1.00  0.00     0.040 A 
ATOM     13  F   UNL     1       6.296  -3.285  -9.151  1.00  0.00    -0.206 F 
ATOM     14  F   UNL     1       7.012  -2.307 -13.721  1.00  0.00    -0.207 F 
ENDBRANCH   1   7
BRANCH   4  15
ATOM     15  C   UNL     1       3.807   1.859  -6.744  1.00  0.00     0.339 C 
ATOM     16  O   UNL     1       4.060   2.233  -5.597  1.00  0.00    -0.246 OA
BRANCH  15  17
ATOM     17  O   UNL     1       3.457   2.728  -7.731  1.00  0.00    -0.478 OA
ATOM     18  H   UNL     1       3.061   2.266  -8.500  1.00  0.00     0.297 HD
ENDBRANCH  15  17
ENDBRANCH   4  15
BRANCH   5  19
ATOM     19  O   UNL     1       2.641  -0.275  -5.271  1.00  0.00    -0.507 OA
ATOM     20  H   UNL     1       1.828  -0.806  -5.210  1.00  0.00     0.293 HD
ENDBRANCH   5  19
TORSDOF 4
ENDMDL
MODEL 3
REMARK VINA RESULT:    -7.114      1.755      3.245
REMARK INTER + INTRA:          -8.994
REMARK INTER:                  -8.315
REMARK INTRA:                  -0.679
REMARK UNBOUND:                -0.632
REMARK SMILES O=C(O)c1cc(-c2ccc(F)cc2F)ccc1O
REMARK SMILES IDX 6 1 5 2 15 3 4 4 17 5 16 6 7 7 13 8 12 9 8 10 10 11 9 12
REMARK SMILES IDX 14 13 11 14 2 15 1 16 3 17 18 19
REMARK H PARENT 3 18 18 20
ROOT
ATOM      1  C   UNL     1       4.550  -1.294  -8.796  1.00  0.00    -0.014 A 
ATOM      2  C   UNL     1       3.952  -2.366  -8.135  1.00  0.00     0.028 A 
ATOM      3  C   UNL     1       4.496  -0.015  -8.242  1.00  0.00     0.013 A 
ATOM      4  C   UNL     1       3.300  -2.161  -6.919  1.00  0.00     0.102 A 
ATOM      5  C   UNL     1       3.247  -0.882  -6.364  1.00  0.00     0.130 A 
ATOM      6  C   UNL     1       3.845   0.191  -7.026  1.00  0.00     0.048 A 
ENDROOT
BRANCH   1   7
ATOM      7  C   UNL     1       5.225  -1.507 -10.059  1.00  0.00     0.018 A 
ATOM      8  C   UNL     1       6.131  -2.558 -10.200  1.00  0.00     0.133 A 
ATOM      9  C   UNL     1       6.780  -2.759 -11.419  1.00  0.00     0.079 A 
ATOM     10  C   UNL     1       4.966  -0.659 -11.135  1.00  0.00     0.015 A 
ATOM     11  C   UNL     1       6.522  -1.911 -12.495  1.00  0.00     0.126 A 
ATOM     12  C   UNL     1       5.615  -0.860 -12.353  1.00  0.00     0.040 A 
ATOM     13  F   UNL     1       6.392  -3.381  -9.174  1.00  0.00    -0.206 F 
ATOM     14  F   UNL     1       7.144  -2.103 -13.665  1.00  0.00    -0.207 F 
ENDBRANCH   1   7
BRANCH   4  15
ATOM     15  C   UNL     1       2.683  -3.294  -6.243  1.00  0.00     0.339 C 
ATOM     16  O   UNL     1       1.586  -3.278  -5.681  1.00  0.00    -0.246 OA
BRANCH  15  17
ATOM     17  O   UNL     1       3.457  -4.412  -6.295  1.00  0.00    -0.478 OA
ATOM     18  H   UNL     1       4.243  -4.338  -5.714  1.00  0.00     0.297 HD
ENDBRANCH  15  17
ENDBRANCH   4  15
BRANCH   5  19
ATOM     19  O   UNL     1       2.616  -0.660  -5.177  1.00  0.00    -0.507 OA
ATOM     20  H   UNL     1       3.044  -1.194  -4.485  1.00  0.00     0.293 HD
ENDBRANCH   5  19
TORSDOF 4
ENDMDL
MODEL 4
REMARK VINA RESULT:    -7.095      1.356      2.806
REMARK INTER + INTRA:          -8.971
REMARK INTER:                  -8.308
REMARK INTRA:                  -0.663
REMARK UNBOUND:                -0.632
REMARK SMILES O=C(O)c1cc(-c2ccc(F)cc2F)ccc1O
REMARK SMILES IDX 6 1 5 2 15 3 4 4 17 5 16 6 7 7 13 8 12 9 8 10 10 11 9 12
REMARK SMILES IDX 14 13 11 14 2 15 1 16 3 17 18 19
REMARK H PARENT 3 18 18 20
ROOT
ATOM      1  C   UNL     1       4.506  -1.268  -8.810  1.00  0.00    -0.014 A 
ATOM      2  C   UNL     1       3.921  -2.345  -8.146  1.00  0.00     0.028 A 
ATOM      3  C   UNL     1       4.450   0.009  -8.252  1.00  0.00     0.013 A 
ATOM      4  C   UNL     1       3.280  -2.146  -6.922  1.00  0.00     0.102 A 
ATOM      5  C   UNL     1       3.225  -0.869  -6.364  1.00  0.00     0.130 A 
ATOM      6  C   UNL     1       3.810   0.209  -7.029  1.00  0.00     0.048 A 
ENDROOT
BRANCH   1   7
ATOM      7  C   UNL     1       5.169  -1.473 -10.080  1.00  0.00     0.018 A 
ATOM      8  C   UNL     1       4.901  -0.625 -11.155  1.00  0.00     0.133 A 
ATOM      9  C   UNL     1       5.543  -0.827 -12.378  1.00  0.00     0.079 A 
ATOM     10  C   UNL     1       6.079  -2.520 -10.226  1.00  0.00     0.015 A 
ATOM     11  C   UNL     1       6.451  -1.874 -12.524  1.00  0.00     0.126 A 
ATOM     12  C   UNL     1       6.720  -2.720 -11.448  1.00  0.00     0.040 A 
ATOM     13  F   UNL     1       4.027   0.384 -11.032  1.00  0.00    -0.206 F 
ATOM     14  F   UNL     1       7.068  -2.068 -13.697  1.00  0.00    -0.207 F 
ENDBRANCH   1   7
BRANCH   4  15
ATOM     15  C   UNL     1       2.676  -3.284  -6.244  1.00  0.00     0.339 C 
ATOM     16  O   UNL     1       1.582  -3.277  -5.675  1.00  0.00    -0.246 OA
BRANCH  15  17
ATOM     17  O   UNL     1       3.458  -4.397  -6.301  1.00  0.00    -0.478 OA
ATOM     18  H   UNL     1       4.365  -4.222  -5.972  1.00  0.00     0.297 HD
ENDBRANCH  15  17
ENDBRANCH   4  15
BRANCH   5  19
ATOM     19  O   UNL     1       2.604  -0.654  -5.169  1.00  0.00    -0.507 OA
ATOM     20  H   UNL     1       1.650  -0.542  -5.323  1.00  0.00     0.293 HD
ENDBRANCH   5  19
TORSDOF 4
ENDMDL
MODEL 5
REMARK VINA RESULT:    -5.170      4.341      6.674
REMARK INTER + INTRA:          -6.709
REMARK INTER:                  -5.647
REMARK INTRA:                  -1.062
REMARK UNBOUND:                -0.632
REMARK SMILES O=C(O)c1cc(-c2ccc(F)cc2F)ccc1O
REMARK SMILES IDX 6 1 5 2 15 3 4 4 17 5 16 6 7 7 13 8 12 9 8 10 10 11 9 12
REMARK SMILES IDX 14 13 11 14 2 15 1 16 3 17 18 19
REMARK H PARENT 3 18 18 20
ROOT
ATOM      1  C   UNL     1       5.645  -1.543 -11.162  1.00  0.00    -0.014 A 
ATOM      2  C   UNL     1       5.168  -2.617 -11.913  1.00  0.00     0.028 A 
ATOM      3  C   UNL     1       6.746  -0.814 -11.610  1.00  0.00     0.013 A 
ATOM      4  C   UNL     1       5.791  -2.961 -13.113  1.00  0.00     0.102 A 
ATOM      5  C   UNL     1       6.893  -2.232 -13.560  1.00  0.00     0.130 A 
ATOM      6  C   UNL     1       7.370  -1.158 -12.809  1.00  0.00     0.048 A 
ENDROOT
BRANCH   1   7
ATOM      7  C   UNL     1       4.999  -1.186  -9.917  1.00  0.00     0.018 A 
ATOM      8  C   UNL     1       4.077  -0.140  -9.882  1.00  0.00     0.133 A 
ATOM      9  C   UNL     1       3.457   0.202  -8.679  1.00  0.00     0.079 A 
ATOM     10  C   UNL     1       5.300  -1.891  -8.752  1.00  0.00     0.015 A 
ATOM     11  C   UNL     1       3.758  -0.503  -7.514  1.00  0.00     0.126 A 
ATOM     12  C   UNL     1       4.680  -1.550  -7.551  1.00  0.00     0.040 A 
ATOM     13  F   UNL     1       3.779   0.550 -10.992  1.00  0.00    -0.206 F 
ATOM     14  F   UNL     1       3.164  -0.176  -6.360  1.00  0.00    -0.207 F 
ENDBRANCH   1   7
BRANCH   4  15
ATOM     15  C   UNL     1       5.277  -4.086 -13.883  1.00  0.00     0.339 C 
ATOM     16  O   UNL     1       5.828  -4.589 -14.865  1.00  0.00    -0.246 OA
BRANCH  15  17
ATOM     17  O   UNL     1       4.091  -4.545 -13.400  1.00  0.00    -0.478 OA
ATOM     18  H   UNL     1       3.738  -5.282 -13.941  1.00  0.00     0.297 HD
ENDBRANCH  15  17
ENDBRANCH   4  15
BRANCH   5  19
ATOM     19  O   UNL     1       7.516  -2.552 -14.730  1.00  0.00    -0.507 OA
ATOM     20  H   UNL     1       7.181  -3.410 -15.043  1.00  0.00     0.293 HD
ENDBRANCH   5  19
TORSDOF 4
ENDMDL
MODEL 6
REMARK VINA RESULT:    -5.151      3.960      6.237
REMARK INTER + INTRA:          -6.687
REMARK INTER:                  -5.627
REMARK INTRA:                  -1.060
REMARK UNBOUND:                -0.632
REMARK SMILES O=C(O)c1cc(-c2ccc(F)cc2F)ccc1O
REMARK SMILES IDX 6 1 5 2 15 3 4 4 17 5 16 6 7 7 13 8 12 9 8 10 10 11 9 12
REMARK SMILES IDX 14 13 11 14 2 15 1 16 3 17 18 19
REMARK H PARENT 3 18 18 20
ROOT
ATOM      1  C   UNL     1       5.697  -1.567 -11.119  1.00  0.00    -0.014 A 
ATOM      2  C   UNL     1       6.795  -0.799 -11.503  1.00  0.00     0.028 A 
ATOM      3  C   UNL     1       5.252  -2.605 -11.937  1.00  0.00     0.013 A 
ATOM      4  C   UNL     1       7.450  -1.068 -12.705  1.00  0.00     0.102 A 
ATOM      5  C   UNL     1       7.005  -2.107 -13.523  1.00  0.00     0.130 A 
ATOM      6  C   UNL     1       5.905  -2.875 -13.139  1.00  0.00     0.048 A 
ENDROOT
BRANCH   1   7
ATOM      7  C   UNL     1       5.017  -1.287  -9.873  1.00  0.00     0.018 A 
ATOM      8  C   UNL     1       4.081  -0.254  -9.802  1.00  0.00     0.133 A 
ATOM      9  C   UNL     1       3.428   0.013  -8.598  1.00  0.00     0.079 A 
ATOM     10  C   UNL     1       5.298  -2.052  -8.741  1.00  0.00     0.015 A 
ATOM     11  C   UNL     1       3.710  -0.752  -7.467  1.00  0.00     0.126 A 
ATOM     12  C   UNL     1       4.645  -1.785  -7.539  1.00  0.00     0.040 A 
ATOM     13  F   UNL     1       3.801   0.493 -10.879  1.00  0.00    -0.206 F 
ATOM     14  F   UNL     1       3.083  -0.497  -6.311  1.00  0.00    -0.207 F 
ENDBRANCH   1   7
BRANCH   4  15
ATOM     15  C   UNL     1       8.596  -0.255 -13.088  1.00  0.00     0.339 C 
ATOM     16  O   UNL     1       9.116  -0.236 -14.206  1.00  0.00    -0.246 OA
BRANCH  15  17
ATOM     17  O   UNL     1       9.054   0.510 -12.060  1.00  0.00    -0.478 OA
ATOM     18  H   UNL     1       9.104   1.458 -12.305  1.00  0.00     0.297 HD
ENDBRANCH  15  17
ENDBRANCH   4  15
BRANCH   5  19
ATOM     19  O   UNL     1       7.630  -2.387 -14.701  1.00  0.00    -0.507 OA
ATOM     20  H   UNL     1       8.561  -2.608 -14.522  1.00  0.00     0.293 HD
ENDBRANCH   5  19
TORSDOF 4
ENDMDL
