MODEL 1
REMARK VINA RESULT:    -4.982      0.000      0.000
REMARK INTER + INTRA:          -6.878
REMARK INTER:                  -6.147
REMARK INTRA:                  -0.731
REMARK UNBOUND:                -0.731
REMARK SMILES Cc1ccc(C(=O)c2cc(O)c(O)c([N+](=O)[O-])c2)cc1
REMARK SMILES IDX 8 1 18 2 9 3 14 4 10 5 12 6 6 7 7 8 5 9 4 10 19 11 3 12
REMARK SMILES IDX 20 13 2 14 1 15 15 16 17 17 16 18 11 19 13 21
REMARK H PARENT 11 20 13 22
ROOT
ATOM      1  C   UNL     1       3.812  -1.740  -8.914  1.00  0.00     0.033 A 
ATOM      2  C   UNL     1       3.928  -0.396  -8.646  1.00  0.00     0.102 A 
ATOM      3  C   UNL     1       3.363  -2.650  -7.987  1.00  0.00     0.063 A 
ATOM      4  C   UNL     1       3.574   0.064  -7.378  1.00  0.00     0.315 A 
ATOM      5  C   UNL     1       3.009  -2.191  -6.718  1.00  0.00     0.165 A 
ATOM      6  C   UNL     1       3.114  -0.833  -6.414  1.00  0.00     0.237 A 
ENDROOT
BRANCH   1   7
ATOM      7  C   UNL     1       4.192  -2.233 -10.273  1.00  0.00     0.193 C 
ATOM      8  O   UNL     1       3.486  -3.121 -10.774  1.00  0.00    -0.289 OA
BRANCH   7   9
ATOM      9  C   UNL     1       5.337  -1.710 -11.000  1.00  0.00     0.023 A 
ATOM     10  C   UNL     1       6.550  -2.399 -10.981  1.00  0.00     0.012 A 
ATOM     11  C   UNL     1       5.224  -0.519 -11.717  1.00  0.00     0.012 A 
ATOM     12  C   UNL     1       7.648  -1.897 -11.678  1.00  0.00     0.004 A 
ATOM     13  C   UNL     1       6.322  -0.016 -12.416  1.00  0.00     0.004 A 
ATOM     14  C   UNL     1       7.535  -0.705 -12.396  1.00  0.00    -0.051 A 
ATOM     15  C   UNL     1       8.710  -0.169 -13.141  1.00  0.00     0.044 C 
ENDBRANCH   7   9
ENDBRANCH   1   7
BRANCH   4  16
ATOM     16  N   UNL     1       3.687   1.451  -7.086  1.00  0.00     0.066 N 
ATOM     17  O   UNL     1       4.067   1.800  -5.942  1.00  0.00    -0.258 OA
ATOM     18  O   UNL     1       3.406   2.283  -7.979  1.00  0.00    -0.258 OA
ENDBRANCH   4  16
BRANCH   5  19
ATOM     19  O   UNL     1       2.562  -3.078  -5.787  1.00  0.00    -0.504 OA
ATOM     20  H   UNL     1       2.605  -2.674  -4.904  1.00  0.00     0.293 HD
ENDBRANCH   5  19
BRANCH   6  21
ATOM     21  O   UNL     1       2.764  -0.395  -5.169  1.00  0.00    -0.500 OA
ATOM     22  H   UNL     1       2.024  -0.924  -4.834  1.00  0.00     0.294 HD
ENDBRANCH   6  21
TORSDOF 5
ENDMDL
MODEL 2
REMARK VINA RESULT:    -4.975      1.998      3.530
REMARK INTER + INTRA:          -6.869
REMARK INTER:                  -6.181
REMARK INTRA:                  -0.688
REMARK UNBOUND:                -0.731
REMARK SMILES Cc1ccc(C(=O)c2cc(O)c(O)c([N+](=O)[O-])c2)cc1
REMARK SMILES IDX 8 1 18 2 9 3 14 4 10 5 12 6 6 7 7 8 5 9 4 10 19 11 3 12
REMARK SMILES IDX 20 13 2 14 1 15 15 16 17 17 16 18 11 19 13 21
REMARK H PARENT 11 20 13 22
ROOT
ATOM      1  C   UNL     1       5.077  -0.576  -8.424  1.00  0.00     0.033 A 
ATOM      2  C   UNL     1       4.480  -1.760  -8.058  1.00  0.00     0.102 A 
ATOM      3  C   UNL     1       4.860   0.606  -7.758  1.00  0.00     0.063 A 
ATOM      4  C   UNL     1       3.618  -1.762  -6.962  1.00  0.00     0.315 A 
ATOM      5  C   UNL     1       3.996   0.605  -6.662  1.00  0.00     0.165 A 
ATOM      6  C   UNL     1       3.375  -0.579  -6.264  1.00  0.00     0.237 A 
ENDROOT
BRANCH   1   7
ATOM      7  C   UNL     1       6.001  -0.574  -9.598  1.00  0.00     0.193 C 
ATOM      8  O   UNL     1       6.946   0.229  -9.578  1.00  0.00    -0.289 OA
BRANCH   7   9
ATOM      9  C   UNL     1       5.824  -1.468 -10.731  1.00  0.00     0.023 A 
ATOM     10  C   UNL     1       5.242  -0.996 -11.908  1.00  0.00     0.012 A 
ATOM     11  C   UNL     1       6.235  -2.798 -10.642  1.00  0.00     0.012 A 
ATOM     12  C   UNL     1       5.073  -1.853 -12.995  1.00  0.00     0.004 A 
ATOM     13  C   UNL     1       6.066  -3.656 -11.729  1.00  0.00     0.004 A 
ATOM     14  C   UNL     1       5.484  -3.183 -12.906  1.00  0.00    -0.051 A 
ATOM     15  C   UNL     1       5.301  -4.100 -14.068  1.00  0.00     0.044 C 
ENDBRANCH   7   9
ENDBRANCH   1   7
BRANCH   4  16
ATOM     16  N   UNL     1       2.994  -2.978  -6.572  1.00  0.00     0.066 N 
ATOM     17  O   UNL     1       3.601  -4.059  -6.762  1.00  0.00    -0.258 OA
ATOM     18  O   UNL     1       1.856  -2.935  -6.049  1.00  0.00    -0.258 OA
ENDBRANCH   4  16
BRANCH   5  19
ATOM     19  O   UNL     1       3.769   1.768  -5.989  1.00  0.00    -0.504 OA
ATOM     20  H   UNL     1       4.023   1.660  -5.057  1.00  0.00     0.293 HD
ENDBRANCH   5  19
BRANCH   6  21
ATOM     21  O   UNL     1       2.533  -0.568  -5.190  1.00  0.00    -0.500 OA
ATOM     22  H   UNL     1       1.618  -0.466  -5.494  1.00  0.00     0.294 HD
ENDBRANCH   6  21
TORSDOF 5
ENDMDL
MODEL 3
REMARK VINA RESULT:    -4.508      2.352      4.120
REMARK INTER + INTRA:          -6.293
REMARK INTER:                  -5.317
REMARK INTRA:                  -0.976
REMARK UNBOUND:                -0.731
REMARK SMILES Cc1ccc(C(=O)c2cc(O)c(O)c([N+](=O)[O-])c2)cc1
REMARK SMILES IDX 8 1 18 2 9 3 14 4 10 5 12 6 6 7 7 8 5 9 4 10 19 11 3 12
REMARK SMILES IDX 20 13 2 14 1 15 15 16 17 17 16 18 11 19 13 21
REMARK H PARENT 11 20 13 22
ROOT
ATOM      1  C   UNL     1       5.600  -0.877 -11.798  1.00  0.00     0.033 A 
ATOM      2  C   UNL     1       5.458  -1.287 -10.493  1.00  0.00     0.102 A 
ATOM      3  C   UNL     1       4.879   0.163 -12.337  1.00  0.00     0.063 A 
ATOM      4  C   UNL     1       4.543  -0.619  -9.680  1.00  0.00     0.315 A 
ATOM      5  C   UNL     1       3.963   0.831 -11.523  1.00  0.00     0.165 A 
ATOM      6  C   UNL     1       3.796   0.440 -10.194  1.00  0.00     0.237 A 
ENDROOT
BRANCH   1   7
ATOM      7  C   UNL     1       6.580  -1.592 -12.670  1.00  0.00     0.193 C 
ATOM      8  O   UNL     1       6.234  -2.691 -13.131  1.00  0.00    -0.289 OA
BRANCH   7   9
ATOM      9  C   UNL     1       7.891  -1.046 -12.982  1.00  0.00     0.023 A 
ATOM     10  C   UNL     1       8.303  -0.935 -14.310  1.00  0.00     0.012 A 
ATOM     11  C   UNL     1       8.736  -0.632 -11.953  1.00  0.00     0.012 A 
ATOM     12  C   UNL     1       9.560  -0.411 -14.608  1.00  0.00     0.004 A 
ATOM     13  C   UNL     1       9.995  -0.108 -12.251  1.00  0.00     0.004 A 
ATOM     14  C   UNL     1      10.406   0.003 -13.579  1.00  0.00    -0.051 A 
ATOM     15  C   UNL     1      11.751   0.562 -13.899  1.00  0.00     0.044 C 
ENDBRANCH   7   9
ENDBRANCH   1   7
BRANCH   4  16
ATOM     16  N   UNL     1       4.385  -1.032  -8.328  1.00  0.00     0.066 N 
ATOM     17  O   UNL     1       3.247  -0.968  -7.804  1.00  0.00    -0.258 OA
ATOM     18  O   UNL     1       5.387  -1.448  -7.701  1.00  0.00    -0.258 OA
ENDBRANCH   4  16
BRANCH   5  19
ATOM     19  O   UNL     1       3.241   1.865 -12.039  1.00  0.00    -0.504 OA
ATOM     20  H   UNL     1       2.722   2.284 -11.332  1.00  0.00     0.293 HD
ENDBRANCH   5  19
BRANCH   6  21
ATOM     21  O   UNL     1       2.898   1.102  -9.408  1.00  0.00    -0.500 OA
ATOM     22  H   UNL     1       3.366   1.728  -8.834  1.00  0.00     0.294 HD
ENDBRANCH   6  21
TORSDOF 5
ENDMDL
MODEL 4
REMARK VINA RESULT:    -4.434      3.607      4.445
REMARK INTER + INTRA:          -6.202
REMARK INTER:                  -5.239
REMARK INTRA:                  -0.963
REMARK UNBOUND:                -0.731
REMARK SMILES Cc1ccc(C(=O)c2cc(O)c(O)c([N+](=O)[O-])c2)cc1
REMARK SMILES IDX 8 1 18 2 9 3 14 4 10 5 12 6 6 7 7 8 5 9 4 10 19 11 3 12
REMARK SMILES IDX 20 13 2 14 1 15 15 16 17 17 16 18 11 19 13 21
REMARK H PARENT 11 20 13 22
ROOT
ATOM      1  C   UNL     1       6.204  -2.631 -11.207  1.00  0.00     0.033 A 
ATOM      2  C   UNL     1       5.336  -1.781 -10.561  1.00  0.00     0.102 A 
ATOM      3  C   UNL     1       6.855  -3.660 -10.568  1.00  0.00     0.063 A 
ATOM      4  C   UNL     1       5.107  -1.971  -9.199  1.00  0.00     0.315 A 
ATOM      5  C   UNL     1       6.626  -3.850  -9.205  1.00  0.00     0.165 A 
ATOM      6  C   UNL     1       5.751  -3.006  -8.520  1.00  0.00     0.237 A 
ENDROOT
BRANCH   1   7
ATOM      7  C   UNL     1       6.450  -2.427 -12.666  1.00  0.00     0.193 C 
ATOM      8  O   UNL     1       7.229  -1.518 -12.990  1.00  0.00    -0.289 OA
BRANCH   7   9
ATOM      9  C   UNL     1       5.816  -3.248 -13.686  1.00  0.00     0.023 A 
ATOM     10  C   UNL     1       6.586  -3.819 -14.699  1.00  0.00     0.012 A 
ATOM     11  C   UNL     1       4.439  -3.463 -13.651  1.00  0.00     0.012 A 
ATOM     12  C   UNL     1       5.978  -4.606 -15.677  1.00  0.00     0.004 A 
ATOM     13  C   UNL     1       3.830  -4.251 -14.629  1.00  0.00     0.004 A 
ATOM     14  C   UNL     1       4.600  -4.823 -15.642  1.00  0.00    -0.051 A 
ATOM     15  C   UNL     1       3.950  -5.663 -16.689  1.00  0.00     0.044 C 
ENDBRANCH   7   9
ENDBRANCH   1   7
BRANCH   4  16
ATOM     16  N   UNL     1       4.212  -1.101  -8.517  1.00  0.00     0.066 N 
ATOM     17  O   UNL     1       4.459  -0.788  -7.328  1.00  0.00    -0.258 OA
ATOM     18  O   UNL     1       3.205  -0.671  -9.126  1.00  0.00    -0.258 OA
ENDBRANCH   4  16
BRANCH   5  19
ATOM     19  O   UNL     1       7.262  -4.865  -8.555  1.00  0.00    -0.504 OA
ATOM     20  H   UNL     1       6.604  -5.459  -8.158  1.00  0.00     0.293 HD
ENDBRANCH   5  19
BRANCH   6  21
ATOM     21  O   UNL     1       5.534  -3.202  -7.187  1.00  0.00    -0.500 OA
ATOM     22  H   UNL     1       4.902  -2.544  -6.859  1.00  0.00     0.294 HD
ENDBRANCH   6  21
TORSDOF 5
ENDMDL
MODEL 5
REMARK VINA RESULT:    -4.364      3.477      7.168
REMARK INTER + INTRA:          -6.115
REMARK INTER:                  -5.154
REMARK INTRA:                  -0.962
REMARK UNBOUND:                -0.731
REMARK SMILES Cc1ccc(C(=O)c2cc(O)c(O)c([N+](=O)[O-])c2)cc1
REMARK SMILES IDX 8 1 18 2 9 3 14 4 10 5 12 6 6 7 7 8 5 9 4 10 19 11 3 12
REMARK SMILES IDX 20 13 2 14 1 15 15 16 17 17 16 18 11 19 13 21
REMARK H PARENT 11 20 13 22
ROOT
ATOM      1  C   UNL     1       5.685  -1.117 -11.781  1.00  0.00     0.033 A 
ATOM      2  C   UNL     1       5.245  -2.249 -12.428  1.00  0.00     0.102 A 
ATOM      3  C   UNL     1       6.837  -0.456 -12.134  1.00  0.00     0.063 A 
ATOM      4  C   UNL     1       6.001  -2.747 -13.489  1.00  0.00     0.315 A 
ATOM      5  C   UNL     1       7.594  -0.954 -13.194  1.00  0.00     0.165 A 
ATOM      6  C   UNL     1       7.176  -2.100 -13.872  1.00  0.00     0.237 A 
ENDROOT
BRANCH   1   7
ATOM      7  C   UNL     1       4.875  -0.583 -10.645  1.00  0.00     0.193 C 
ATOM      8  O   UNL     1       4.566   0.618 -10.680  1.00  0.00    -0.289 OA
BRANCH   7   9
ATOM      9  C   UNL     1       4.452  -1.416  -9.530  1.00  0.00     0.023 A 
ATOM     10  C   UNL     1       3.109  -1.447  -9.153  1.00  0.00     0.012 A 
ATOM     11  C   UNL     1       5.388  -2.183  -8.838  1.00  0.00     0.012 A 
ATOM     12  C   UNL     1       2.704  -2.246  -8.084  1.00  0.00     0.004 A 
ATOM     13  C   UNL     1       4.983  -2.983  -7.769  1.00  0.00     0.004 A 
ATOM     14  C   UNL     1       3.640  -3.014  -7.392  1.00  0.00    -0.051 A 
ATOM     15  C   UNL     1       3.207  -3.867  -6.248  1.00  0.00     0.044 C 
ENDBRANCH   7   9
ENDBRANCH   1   7
BRANCH   4  16
ATOM     16  N   UNL     1       5.559  -3.915 -14.167  1.00  0.00     0.066 N 
ATOM     17  O   UNL     1       4.914  -4.780 -13.527  1.00  0.00    -0.258 OA
ATOM     18  O   UNL     1       5.827  -4.047 -15.384  1.00  0.00    -0.258 OA
ENDBRANCH   4  16
BRANCH   5  19
ATOM     19  O   UNL     1       8.739  -0.311 -13.559  1.00  0.00    -0.504 OA
ATOM     20  H   UNL     1       8.787   0.548 -13.108  1.00  0.00     0.293 HD
ENDBRANCH   5  19
BRANCH   6  21
ATOM     21  O   UNL     1       7.924  -2.577 -14.909  1.00  0.00    -0.500 OA
ATOM     22  H   UNL     1       7.521  -2.314 -15.751  1.00  0.00     0.294 HD
ENDBRANCH   6  21
TORSDOF 5
ENDMDL
MODEL 6
REMARK VINA RESULT:    -4.268      3.653      6.770
REMARK INTER + INTRA:          -5.997
REMARK INTER:                  -5.020
REMARK INTRA:                  -0.977
REMARK UNBOUND:                -0.731
REMARK SMILES Cc1ccc(C(=O)c2cc(O)c(O)c([N+](=O)[O-])c2)cc1
REMARK SMILES IDX 8 1 18 2 9 3 14 4 10 5 12 6 6 7 7 8 5 9 4 10 19 11 3 12
REMARK SMILES IDX 20 13 2 14 1 15 15 16 17 17 16 18 11 19 13 21
REMARK H PARENT 11 20 13 22
ROOT
ATOM      1  C   UNL     1       5.660  -1.108 -11.740  1.00  0.00     0.033 A 
ATOM      2  C   UNL     1       6.842  -0.479 -12.054  1.00  0.00     0.102 A 
ATOM      3  C   UNL     1       5.192  -2.204 -12.426  1.00  0.00     0.063 A 
ATOM      4  C   UNL     1       7.600  -0.974 -13.116  1.00  0.00     0.315 A 
ATOM      5  C   UNL     1       5.950  -2.699 -13.489  1.00  0.00     0.165 A 
ATOM      6  C   UNL     1       7.154  -2.084 -13.833  1.00  0.00     0.237 A 
ENDROOT
BRANCH   1   7
ATOM      7  C   UNL     1       4.849  -0.578 -10.603  1.00  0.00     0.193 C 
ATOM      8  O   UNL     1       4.540   0.623 -10.636  1.00  0.00    -0.289 OA
BRANCH   7   9
ATOM      9  C   UNL     1       4.425  -1.414  -9.491  1.00  0.00     0.023 A 
ATOM     10  C   UNL     1       5.359  -2.191  -8.807  1.00  0.00     0.012 A 
ATOM     11  C   UNL     1       3.084  -1.438  -9.109  1.00  0.00     0.012 A 
ATOM     12  C   UNL     1       4.952  -2.992  -7.740  1.00  0.00     0.004 A 
ATOM     13  C   UNL     1       2.676  -2.239  -8.042  1.00  0.00     0.004 A 
ATOM     14  C   UNL     1       3.610  -3.017  -7.357  1.00  0.00    -0.051 A 
ATOM     15  C   UNL     1       3.175  -3.874  -6.218  1.00  0.00     0.044 C 
ENDBRANCH   7   9
ENDBRANCH   1   7
BRANCH   4  16
ATOM     16  N   UNL     1       8.824  -0.334 -13.452  1.00  0.00     0.066 N 
ATOM     17  O   UNL     1       9.196  -0.329 -14.650  1.00  0.00    -0.258 OA
ATOM     18  O   UNL     1       9.496   0.206 -12.542  1.00  0.00    -0.258 OA
ENDBRANCH   4  16
BRANCH   5  19
ATOM     19  O   UNL     1       5.502  -3.784 -14.180  1.00  0.00    -0.504 OA
ATOM     20  H   UNL     1       6.164  -4.044 -14.842  1.00  0.00     0.293 HD
ENDBRANCH   5  19
BRANCH   6  21
ATOM     21  O   UNL     1       7.886  -2.578 -14.873  1.00  0.00    -0.500 OA
ATOM     22  H   UNL     1       7.431  -2.392 -15.709  1.00  0.00     0.294 HD
ENDBRANCH   6  21
TORSDOF 5
ENDMDL
MODEL 7
REMARK VINA RESULT:    -4.233      1.271      2.898
REMARK INTER + INTRA:          -5.954
REMARK INTER:                  -5.330
REMARK INTRA:                  -0.625
REMARK UNBOUND:                -0.731
REMARK SMILES Cc1ccc(C(=O)c2cc(O)c(O)c([N+](=O)[O-])c2)cc1
REMARK SMILES IDX 8 1 18 2 9 3 14 4 10 5 12 6 6 7 7 8 5 9 4 10 19 11 3 12
REMARK SMILES IDX 20 13 2 14 1 15 15 16 17 17 16 18 11 19 13 21
REMARK H PARENT 11 20 13 22
ROOT
ATOM      1  C   UNL     1       4.207  -1.632  -9.366  1.00  0.00     0.033 A 
ATOM      2  C   UNL     1       3.783  -2.549  -8.432  1.00  0.00     0.102 A 
ATOM      3  C   UNL     1       4.198  -0.277  -9.138  1.00  0.00     0.063 A 
ATOM      4  C   UNL     1       3.325  -2.082  -7.200  1.00  0.00     0.315 A 
ATOM      5  C   UNL     1       3.739   0.190  -7.906  1.00  0.00     0.165 A 
ATOM      6  C   UNL     1       3.303  -0.713  -6.936  1.00  0.00     0.237 A 
ENDROOT
BRANCH   1   7
ATOM      7  C   UNL     1       4.697  -2.132 -10.686  1.00  0.00     0.193 C 
ATOM      8  O   UNL     1       4.073  -3.068 -11.207  1.00  0.00    -0.289 OA
BRANCH   7   9
ATOM      9  C   UNL     1       5.856  -1.561 -11.354  1.00  0.00     0.023 A 
ATOM     10  C   UNL     1       5.733  -0.368 -12.067  1.00  0.00     0.012 A 
ATOM     11  C   UNL     1       7.091  -2.205 -11.281  1.00  0.00     0.012 A 
ATOM     12  C   UNL     1       6.844   0.179 -12.707  1.00  0.00     0.004 A 
ATOM     13  C   UNL     1       8.203  -1.658 -11.921  1.00  0.00     0.004 A 
ATOM     14  C   UNL     1       8.080  -0.465 -12.634  1.00  0.00    -0.051 A 
ATOM     15  C   UNL     1       9.267   0.119 -13.320  1.00  0.00     0.044 C 
ENDBRANCH   7   9
ENDBRANCH   1   7
BRANCH   4  16
ATOM     16  N   UNL     1       2.883  -3.018  -6.224  1.00  0.00     0.066 N 
ATOM     17  O   UNL     1       3.680  -3.904  -5.831  1.00  0.00    -0.258 OA
ATOM     18  O   UNL     1       1.713  -2.929  -5.785  1.00  0.00    -0.258 OA
ENDBRANCH   4  16
BRANCH   5  19
ATOM     19  O   UNL     1       3.724   1.531  -7.663  1.00  0.00    -0.504 OA
ATOM     20  H   UNL     1       4.634   1.853  -7.557  1.00  0.00     0.293 HD
ENDBRANCH   5  19
BRANCH   6  21
ATOM     21  O   UNL     1       2.857  -0.244  -5.735  1.00  0.00    -0.500 OA
ATOM     22  H   UNL     1       1.909  -0.045  -5.794  1.00  0.00     0.294 HD
ENDBRANCH   6  21
TORSDOF 5
ENDMDL
MODEL 8
REMARK VINA RESULT:    -4.210      1.943      2.544
REMARK INTER + INTRA:          -5.926
REMARK INTER:                  -5.320
REMARK INTRA:                  -0.606
REMARK UNBOUND:                -0.731
REMARK SMILES Cc1ccc(C(=O)c2cc(O)c(O)c([N+](=O)[O-])c2)cc1
REMARK SMILES IDX 8 1 18 2 9 3 14 4 10 5 12 6 6 7 7 8 5 9 4 10 19 11 3 12
REMARK SMILES IDX 20 13 2 14 1 15 15 16 17 17 16 18 11 19 13 21
REMARK H PARENT 11 20 13 22
ROOT
ATOM      1  C   UNL     1       5.187  -0.917  -9.005  1.00  0.00     0.033 A 
ATOM      2  C   UNL     1       4.842   0.303  -8.471  1.00  0.00     0.102 A 
ATOM      3  C   UNL     1       4.791  -2.112  -8.453  1.00  0.00     0.063 A 
ATOM      4  C   UNL     1       4.055   0.329  -7.320  1.00  0.00     0.315 A 
ATOM      5  C   UNL     1       4.004  -2.086  -7.301  1.00  0.00     0.165 A 
ATOM      6  C   UNL     1       3.636  -0.865  -6.734  1.00  0.00     0.237 A 
ENDROOT
BRANCH   1   7
ATOM      7  C   UNL     1       6.030  -0.945 -10.238  1.00  0.00     0.193 C 
ATOM      8  O   UNL     1       6.966  -0.134 -10.305  1.00  0.00    -0.289 OA
BRANCH   7   9
ATOM      9  C   UNL     1       5.786  -1.875 -11.328  1.00  0.00     0.023 A 
ATOM     10  C   UNL     1       5.129  -1.442 -12.480  1.00  0.00     0.012 A 
ATOM     11  C   UNL     1       6.209  -3.200 -11.223  1.00  0.00     0.012 A 
ATOM     12  C   UNL     1       4.895  -2.335 -13.526  1.00  0.00     0.004 A 
ATOM     13  C   UNL     1       5.975  -4.093 -12.269  1.00  0.00     0.004 A 
ATOM     14  C   UNL     1       5.318  -3.661 -13.421  1.00  0.00    -0.051 A 
ATOM     15  C   UNL     1       5.067  -4.614 -14.539  1.00  0.00     0.044 C 
ENDBRANCH   7   9
ENDBRANCH   1   7
BRANCH   4  16
ATOM     16  N   UNL     1       3.690   1.583  -6.757  1.00  0.00     0.066 N 
ATOM     17  O   UNL     1       4.021   1.835  -5.573  1.00  0.00    -0.258 OA
ATOM     18  O   UNL     1       3.050   2.399  -7.460  1.00  0.00    -0.258 OA
ENDBRANCH   4  16
BRANCH   5  19
ATOM     19  O   UNL     1       3.601  -3.261  -6.740  1.00  0.00    -0.504 OA
ATOM     20  H   UNL     1       2.656  -3.398  -6.916  1.00  0.00     0.293 HD
ENDBRANCH   5  19
BRANCH   6  21
ATOM     21  O   UNL     1       2.865  -0.853  -5.608  1.00  0.00    -0.500 OA
ATOM     22  H   UNL     1       3.142  -1.569  -5.016  1.00  0.00     0.294 HD
ENDBRANCH   6  21
TORSDOF 5
ENDMDL
MODEL 9
REMARK VINA RESULT:    -4.173      2.213      3.490
REMARK INTER + INTRA:          -5.880
REMARK INTER:                  -5.001
REMARK INTRA:                  -0.879
REMARK UNBOUND:                -0.731
REMARK SMILES Cc1ccc(C(=O)c2cc(O)c(O)c([N+](=O)[O-])c2)cc1
REMARK SMILES IDX 8 1 18 2 9 3 14 4 10 5 12 6 6 7 7 8 5 9 4 10 19 11 3 12
REMARK SMILES IDX 20 13 2 14 1 15 15 16 17 17 16 18 11 19 13 21
REMARK H PARENT 11 20 13 22
ROOT
ATOM      1  C   UNL     1       6.058  -2.061 -10.898  1.00  0.00     0.033 A 
ATOM      2  C   UNL     1       5.174  -1.382 -10.094  1.00  0.00     0.102 A 
ATOM      3  C   UNL     1       6.735  -3.183 -10.483  1.00  0.00     0.063 A 
ATOM      4  C   UNL     1       4.952  -1.853  -8.800  1.00  0.00     0.315 A 
ATOM      5  C   UNL     1       6.514  -3.654  -9.188  1.00  0.00     0.165 A 
ATOM      6  C   UNL     1       5.622  -2.989  -8.346  1.00  0.00     0.237 A 
ENDROOT
BRANCH   1   7
ATOM      7  C   UNL     1       6.296  -1.557 -12.285  1.00  0.00     0.193 C 
ATOM      8  O   UNL     1       5.340  -1.590 -13.073  1.00  0.00    -0.289 OA
BRANCH   7   9
ATOM      9  C   UNL     1       7.586  -1.043 -12.717  1.00  0.00     0.023 A 
ATOM     10  C   UNL     1       8.004  -1.228 -14.035  1.00  0.00     0.012 A 
ATOM     11  C   UNL     1       8.404  -0.364 -11.814  1.00  0.00     0.012 A 
ATOM     12  C   UNL     1       9.241  -0.734 -14.449  1.00  0.00     0.004 A 
ATOM     13  C   UNL     1       9.642   0.130 -12.228  1.00  0.00     0.004 A 
ATOM     14  C   UNL     1      10.060  -0.055 -13.546  1.00  0.00    -0.051 A 
ATOM     15  C   UNL     1      11.383   0.471 -13.990  1.00  0.00     0.044 C 
ENDBRANCH   7   9
ENDBRANCH   1   7
BRANCH   4  16
ATOM     16  N   UNL     1       4.040  -1.161  -7.956  1.00  0.00     0.066 N 
ATOM     17  O   UNL     1       4.334  -1.001  -6.747  1.00  0.00    -0.258 OA
ATOM     18  O   UNL     1       2.969  -0.731  -8.445  1.00  0.00    -0.258 OA
ENDBRANCH   4  16
BRANCH   5  19
ATOM     19  O   UNL     1       7.175  -4.766  -8.759  1.00  0.00    -0.504 OA
ATOM     20  H   UNL     1       7.416  -4.660  -7.824  1.00  0.00     0.293 HD
ENDBRANCH   5  19
BRANCH   6  21
ATOM     21  O   UNL     1       5.414  -3.460  -7.082  1.00  0.00    -0.500 OA
ATOM     22  H   UNL     1       4.486  -3.327  -6.834  1.00  0.00     0.294 HD
ENDBRANCH   6  21
TORSDOF 5
ENDMDL
