MODEL 1
REMARK VINA RESULT:    -5.217      0.000      0.000
REMARK INTER + INTRA:          -7.210
REMARK INTER:                  -6.437
REMARK INTRA:                  -0.772
REMARK UNBOUND:                -0.772
REMARK SMILES Cc1ccc(C(=O)c2cc(O)c(O)c([N+](=O)[O-])c2)cc1
REMARK SMILES IDX 8 1 18 2 9 3 14 4 10 5 12 6 6 7 7 8 5 9 4 10 19 11 3 12
REMARK SMILES IDX 20 13 2 14 1 15 15 16 17 17 16 18 11 19 13 21
REMARK H PARENT 11 20 13 22
ROOT
ATOM      1  C   UNL     1       3.620  -1.108  -7.738  1.00  0.00     0.033 A 
ATOM      2  C   UNL     1       4.539  -0.751  -6.779  1.00  0.00     0.102 A 
ATOM      3  C   UNL     1       2.364  -1.573  -7.432  1.00  0.00     0.063 A 
ATOM      4  C   UNL     1       4.180  -0.864  -5.436  1.00  0.00     0.315 A 
ATOM      5  C   UNL     1       2.004  -1.687  -6.088  1.00  0.00     0.165 A 
ATOM      6  C   UNL     1       2.912  -1.332  -5.090  1.00  0.00     0.237 A 
ENDROOT
BRANCH   1   7
ATOM      7  C   UNL     1       4.005  -0.987  -9.177  1.00  0.00     0.193 C 
ATOM      8  O   UNL     1       3.117  -0.659  -9.978  1.00  0.00    -0.289 OA
BRANCH   7   9
ATOM      9  C   UNL     1       5.359  -1.238  -9.645  1.00  0.00     0.023 A 
ATOM     10  C   UNL     1       5.703  -2.495 -10.142  1.00  0.00     0.012 A 
ATOM     11  C   UNL     1       6.313  -0.222  -9.599  1.00  0.00     0.012 A 
ATOM     12  C   UNL     1       7.001  -2.736 -10.592  1.00  0.00     0.004 A 
ATOM     13  C   UNL     1       7.612  -0.462 -10.049  1.00  0.00     0.004 A 
ATOM     14  C   UNL     1       7.956  -1.719 -10.546  1.00  0.00    -0.051 A 
ATOM     15  C   UNL     1       9.344  -1.977 -11.025  1.00  0.00     0.044 C 
ENDBRANCH   7   9
ENDBRANCH   1   7
BRANCH   4  16
ATOM     16  N   UNL     1       5.119  -0.498  -4.433  1.00  0.00     0.066 N 
ATOM     17  O   UNL     1       5.084  -1.087  -3.326  1.00  0.00    -0.258 OA
ATOM     18  O   UNL     1       5.953   0.403  -4.684  1.00  0.00    -0.258 OA
ENDBRANCH   4  16
BRANCH   5  19
ATOM     19  O   UNL     1       0.762  -2.145  -5.765  1.00  0.00    -0.504 OA
ATOM     20  H   UNL     1       0.392  -2.637  -6.516  1.00  0.00     0.293 HD
ENDBRANCH   5  19
BRANCH   6  21
ATOM     21  O   UNL     1       2.549  -1.447  -3.780  1.00  0.00    -0.500 OA
ATOM     22  H   UNL     1       2.685  -2.360  -3.483  1.00  0.00     0.294 HD
ENDBRANCH   6  21
TORSDOF 5
ENDMDL
MODEL 2
REMARK VINA RESULT:    -5.210      1.998      3.539
REMARK INTER + INTRA:          -7.201
REMARK INTER:                  -6.437
REMARK INTRA:                  -0.763
REMARK UNBOUND:                -0.772
REMARK SMILES Cc1ccc(C(=O)c2cc(O)c(O)c([N+](=O)[O-])c2)cc1
REMARK SMILES IDX 8 1 18 2 9 3 14 4 10 5 12 6 6 7 7 8 5 9 4 10 19 11 3 12
REMARK SMILES IDX 20 13 2 14 1 15 15 16 17 17 16 18 11 19 13 21
REMARK H PARENT 11 20 13 22
ROOT
ATOM      1  C   UNL     1       5.090  -1.764  -6.923  1.00  0.00     0.033 A 
ATOM      2  C   UNL     1       3.786  -2.117  -7.181  1.00  0.00     0.102 A 
ATOM      3  C   UNL     1       5.508  -1.292  -5.701  1.00  0.00     0.063 A 
ATOM      4  C   UNL     1       2.846  -1.992  -6.158  1.00  0.00     0.315 A 
ATOM      5  C   UNL     1       4.568  -1.166  -4.678  1.00  0.00     0.165 A 
ATOM      6  C   UNL     1       3.237  -1.517  -4.906  1.00  0.00     0.237 A 
ENDROOT
BRANCH   1   7
ATOM      7  C   UNL     1       6.097  -1.898  -8.018  1.00  0.00     0.193 C 
ATOM      8  O   UNL     1       7.249  -2.225  -7.695  1.00  0.00    -0.289 OA
BRANCH   7   9
ATOM      9  C   UNL     1       5.767  -1.660  -9.414  1.00  0.00     0.023 A 
ATOM     10  C   UNL     1       6.013  -0.413  -9.987  1.00  0.00     0.012 A 
ATOM     11  C   UNL     1       5.203  -2.680 -10.181  1.00  0.00     0.012 A 
ATOM     12  C   UNL     1       5.697  -0.185 -11.326  1.00  0.00     0.004 A 
ATOM     13  C   UNL     1       4.886  -2.453 -11.521  1.00  0.00     0.004 A 
ATOM     14  C   UNL     1       5.133  -1.206 -12.094  1.00  0.00    -0.051 A 
ATOM     15  C   UNL     1       4.793  -0.962 -13.524  1.00  0.00     0.044 C 
ENDBRANCH   7   9
ENDBRANCH   1   7
BRANCH   4  16
ATOM     16  N   UNL     1       1.494  -2.353  -6.410  1.00  0.00     0.066 N 
ATOM     17  O   UNL     1       0.582  -1.752  -5.794  1.00  0.00    -0.258 OA
ATOM     18  O   UNL     1       1.254  -3.260  -7.240  1.00  0.00    -0.258 OA
ENDBRANCH   4  16
BRANCH   5  19
ATOM     19  O   UNL     1       4.964  -0.701  -3.460  1.00  0.00    -0.504 OA
ATOM     20  H   UNL     1       5.165  -1.450  -2.875  1.00  0.00     0.293 HD
ENDBRANCH   5  19
BRANCH   6  21
ATOM     21  O   UNL     1       2.327  -1.390  -3.897  1.00  0.00    -0.500 OA
ATOM     22  H   UNL     1       2.406  -0.511  -3.495  1.00  0.00     0.294 HD
ENDBRANCH   6  21
TORSDOF 5
ENDMDL
MODEL 3
REMARK VINA RESULT:    -4.940      2.336      4.022
REMARK INTER + INTRA:          -6.868
REMARK INTER:                  -5.874
REMARK INTRA:                  -0.994
REMARK UNBOUND:                -0.772
REMARK SMILES Cc1ccc(C(=O)c2cc(O)c(O)c([N+](=O)[O-])c2)cc1
REMARK SMILES IDX 8 1 18 2 9 3 14 4 10 5 12 6 6 7 7 8 5 9 4 10 19 11 3 12
REMARK SMILES IDX 20 13 2 14 1 15 15 16 17 17 16 18 11 19 13 21
REMARK H PARENT 11 20 13 22
ROOT
ATOM      1  C   UNL     1       6.283  -0.574  -9.852  1.00  0.00     0.033 A 
ATOM      2  C   UNL     1       5.484  -1.254  -8.962  1.00  0.00     0.102 A 
ATOM      3  C   UNL     1       6.719   0.711  -9.634  1.00  0.00     0.063 A 
ATOM      4  C   UNL     1       5.101  -0.611  -7.785  1.00  0.00     0.315 A 
ATOM      5  C   UNL     1       6.334   1.355  -8.457  1.00  0.00     0.165 A 
ATOM      6  C   UNL     1       5.525   0.693  -7.532  1.00  0.00     0.237 A 
ENDROOT
BRANCH   1   7
ATOM      7  C   UNL     1       6.694  -1.263 -11.113  1.00  0.00     0.193 C 
ATOM      8  O   UNL     1       5.836  -1.384 -12.000  1.00  0.00    -0.289 OA
BRANCH   7   9
ATOM      9  C   UNL     1       8.038  -1.778 -11.317  1.00  0.00     0.023 A 
ATOM     10  C   UNL     1       8.617  -2.615 -10.363  1.00  0.00     0.012 A 
ATOM     11  C   UNL     1       8.749  -1.436 -12.467  1.00  0.00     0.012 A 
ATOM     12  C   UNL     1       9.906  -3.109 -10.559  1.00  0.00     0.004 A 
ATOM     13  C   UNL     1      10.039  -1.931 -12.664  1.00  0.00     0.004 A 
ATOM     14  C   UNL     1      10.618  -2.767 -11.710  1.00  0.00    -0.051 A 
ATOM     15  C   UNL     1      11.996  -3.295 -11.918  1.00  0.00     0.044 C 
ENDBRANCH   7   9
ENDBRANCH   1   7
BRANCH   4  16
ATOM     16  N   UNL     1       4.275  -1.300  -6.855  1.00  0.00     0.066 N 
ATOM     17  O   UNL     1       3.387  -0.661  -6.242  1.00  0.00    -0.258 OA
ATOM     18  O   UNL     1       4.459  -2.527  -6.675  1.00  0.00    -0.258 OA
ENDBRANCH   4  16
BRANCH   5  19
ATOM     19  O   UNL     1       6.757   2.629  -8.223  1.00  0.00    -0.504 OA
ATOM     20  H   UNL     1       7.285   2.940  -8.977  1.00  0.00     0.293 HD
ENDBRANCH   5  19
BRANCH   6  21
ATOM     21  O   UNL     1       5.157   1.333  -6.384  1.00  0.00    -0.500 OA
ATOM     22  H   UNL     1       5.204   2.293  -6.516  1.00  0.00     0.294 HD
ENDBRANCH   6  21
TORSDOF 5
ENDMDL
MODEL 4
REMARK VINA RESULT:    -4.900      3.534      4.455
REMARK INTER + INTRA:          -6.818
REMARK INTER:                  -5.793
REMARK INTRA:                  -1.024
REMARK UNBOUND:                -0.772
REMARK SMILES Cc1ccc(C(=O)c2cc(O)c(O)c([N+](=O)[O-])c2)cc1
REMARK SMILES IDX 8 1 18 2 9 3 14 4 10 5 12 6 6 7 7 8 5 9 4 10 19 11 3 12
REMARK SMILES IDX 20 13 2 14 1 15 15 16 17 17 16 18 11 19 13 21
REMARK H PARENT 11 20 13 22
ROOT
ATOM      1  C   UNL     1       5.411  -2.255 -10.226  1.00  0.00     0.033 A 
ATOM      2  C   UNL     1       5.056  -1.600  -9.069  1.00  0.00     0.102 A 
ATOM      3  C   UNL     1       5.021  -3.543 -10.504  1.00  0.00     0.063 A 
ATOM      4  C   UNL     1       4.265  -2.272  -8.138  1.00  0.00     0.315 A 
ATOM      5  C   UNL     1       4.231  -4.216  -9.572  1.00  0.00     0.165 A 
ATOM      6  C   UNL     1       3.852  -3.580  -8.389  1.00  0.00     0.237 A 
ENDROOT
BRANCH   1   7
ATOM      7  C   UNL     1       6.259  -1.534 -11.224  1.00  0.00     0.193 C 
ATOM      8  O   UNL     1       7.440  -1.316 -10.915  1.00  0.00    -0.289 OA
BRANCH   7   9
ATOM      9  C   UNL     1       5.745  -1.097 -12.512  1.00  0.00     0.023 A 
ATOM     10  C   UNL     1       4.615  -0.282 -12.572  1.00  0.00     0.012 A 
ATOM     11  C   UNL     1       6.382  -1.493 -13.688  1.00  0.00     0.012 A 
ATOM     12  C   UNL     1       4.123   0.138 -13.807  1.00  0.00     0.004 A 
ATOM     13  C   UNL     1       5.890  -1.073 -14.924  1.00  0.00     0.004 A 
ATOM     14  C   UNL     1       4.760  -0.258 -14.984  1.00  0.00    -0.051 A 
ATOM     15  C   UNL     1       4.233   0.190 -16.305  1.00  0.00     0.044 C 
ENDBRANCH   7   9
ENDBRANCH   1   7
BRANCH   4  16
ATOM     16  N   UNL     1       3.890  -1.608  -6.938  1.00  0.00     0.066 N 
ATOM     17  O   UNL     1       3.619  -0.384  -6.982  1.00  0.00    -0.258 OA
ATOM     18  O   UNL     1       3.841  -2.265  -5.872  1.00  0.00    -0.258 OA
ENDBRANCH   4  16
BRANCH   5  19
ATOM     19  O   UNL     1       3.834  -5.494  -9.830  1.00  0.00    -0.504 OA
ATOM     20  H   UNL     1       4.525  -5.953 -10.336  1.00  0.00     0.293 HD
ENDBRANCH   5  19
BRANCH   6  21
ATOM     21  O   UNL     1       3.078  -4.249  -7.485  1.00  0.00    -0.500 OA
ATOM     22  H   UNL     1       3.461  -5.123  -7.312  1.00  0.00     0.294 HD
ENDBRANCH   6  21
TORSDOF 5
ENDMDL
MODEL 5
REMARK VINA RESULT:    -4.763      3.574      7.206
REMARK INTER + INTRA:          -6.649
REMARK INTER:                  -5.728
REMARK INTRA:                  -0.921
REMARK UNBOUND:                -0.772
REMARK SMILES Cc1ccc(C(=O)c2cc(O)c(O)c([N+](=O)[O-])c2)cc1
REMARK SMILES IDX 8 1 18 2 9 3 14 4 10 5 12 6 6 7 7 8 5 9 4 10 19 11 3 12
REMARK SMILES IDX 20 13 2 14 1 15 15 16 17 17 16 18 11 19 13 21
REMARK H PARENT 11 20 13 22
ROOT
ATOM      1  C   UNL     1       6.392  -0.761 -10.009  1.00  0.00     0.033 A 
ATOM      2  C   UNL     1       5.675  -0.767 -11.183  1.00  0.00     0.102 A 
ATOM      3  C   UNL     1       7.714  -1.132  -9.940  1.00  0.00     0.063 A 
ATOM      4  C   UNL     1       6.317  -1.167 -12.355  1.00  0.00     0.315 A 
ATOM      5  C   UNL     1       8.356  -1.533 -11.112  1.00  0.00     0.165 A 
ATOM      6  C   UNL     1       7.658  -1.550 -12.320  1.00  0.00     0.237 A 
ENDROOT
BRANCH   1   7
ATOM      7  C   UNL     1       5.705  -0.333  -8.754  1.00  0.00     0.193 C 
ATOM      8  O   UNL     1       6.167   0.653  -8.159  1.00  0.00    -0.289 OA
BRANCH   7   9
ATOM      9  C   UNL     1       4.539  -1.025  -8.228  1.00  0.00     0.023 A 
ATOM     10  C   UNL     1       3.479  -0.296  -7.689  1.00  0.00     0.012 A 
ATOM     11  C   UNL     1       4.480  -2.418  -8.264  1.00  0.00     0.012 A 
ATOM     12  C   UNL     1       2.361  -0.961  -7.185  1.00  0.00     0.004 A 
ATOM     13  C   UNL     1       3.362  -3.084  -7.760  1.00  0.00     0.004 A 
ATOM     14  C   UNL     1       2.302  -2.355  -7.221  1.00  0.00    -0.051 A 
ATOM     15  C   UNL     1       1.107  -3.064  -6.681  1.00  0.00     0.044 C 
ENDBRANCH   7   9
ENDBRANCH   1   7
BRANCH   4  16
ATOM     16  N   UNL     1       5.588  -1.178 -13.576  1.00  0.00     0.066 N 
ATOM     17  O   UNL     1       6.183  -0.876 -14.639  1.00  0.00    -0.258 OA
ATOM     18  O   UNL     1       4.375  -1.491 -13.555  1.00  0.00    -0.258 OA
ENDBRANCH   4  16
BRANCH   5  19
ATOM     19  O   UNL     1       9.667  -1.904 -11.063  1.00  0.00    -0.504 OA
ATOM     20  H   UNL     1      10.169  -1.255 -10.544  1.00  0.00     0.293 HD
ENDBRANCH   5  19
BRANCH   6  21
ATOM     21  O   UNL     1       8.297  -1.943 -13.460  1.00  0.00    -0.500 OA
ATOM     22  H   UNL     1       9.096  -1.408 -13.587  1.00  0.00     0.294 HD
ENDBRANCH   6  21
TORSDOF 5
ENDMDL
MODEL 6
REMARK VINA RESULT:    -4.750      3.703      6.613
REMARK INTER + INTRA:          -6.634
REMARK INTER:                  -5.708
REMARK INTRA:                  -0.925
REMARK UNBOUND:                -0.772
REMARK SMILES Cc1ccc(C(=O)c2cc(O)c(O)c([N+](=O)[O-])c2)cc1
REMARK SMILES IDX 8 1 18 2 9 3 14 4 10 5 12 6 6 7 7 8 5 9 4 10 19 11 3 12
REMARK SMILES IDX 20 13 2 14 1 15 15 16 17 17 16 18 11 19 13 21
REMARK H PARENT 11 20 13 22
ROOT
ATOM      1  C   UNL     1       5.549  -2.139 -10.503  1.00  0.00     0.033 A 
ATOM      2  C   UNL     1       6.924  -2.140 -10.519  1.00  0.00     0.102 A 
ATOM      3  C   UNL     1       4.790  -1.772 -11.589  1.00  0.00     0.063 A 
ATOM      4  C   UNL     1       7.578  -1.753 -11.688  1.00  0.00     0.315 A 
ATOM      5  C   UNL     1       5.444  -1.383 -12.758  1.00  0.00     0.165 A 
ATOM      6  C   UNL     1       6.839  -1.374 -12.808  1.00  0.00     0.237 A 
ENDROOT
BRANCH   1   7
ATOM      7  C   UNL     1       4.848  -2.554  -9.250  1.00  0.00     0.193 C 
ATOM      8  O   UNL     1       4.090  -3.533  -9.320  1.00  0.00    -0.289 OA
BRANCH   7   9
ATOM      9  C   UNL     1       5.031  -1.857  -7.987  1.00  0.00     0.023 A 
ATOM     10  C   UNL     1       5.082  -0.463  -7.961  1.00  0.00     0.012 A 
ATOM     11  C   UNL     1       5.154  -2.581  -6.802  1.00  0.00     0.012 A 
ATOM     12  C   UNL     1       5.257   0.206  -6.750  1.00  0.00     0.004 A 
ATOM     13  C   UNL     1       5.329  -1.913  -5.589  1.00  0.00     0.004 A 
ATOM     14  C   UNL     1       5.380  -0.519  -5.563  1.00  0.00    -0.051 A 
ATOM     15  C   UNL     1       5.568   0.196  -4.269  1.00  0.00     0.044 C 
ENDBRANCH   7   9
ENDBRANCH   1   7
BRANCH   4  16
ATOM     16  N   UNL     1       9.000  -1.750 -11.720  1.00  0.00     0.066 N 
ATOM     17  O   UNL     1       9.583  -2.106 -12.772  1.00  0.00    -0.258 OA
ATOM     18  O   UNL     1       9.628  -1.390 -10.697  1.00  0.00    -0.258 OA
ENDBRANCH   4  16
BRANCH   5  19
ATOM     19  O   UNL     1       4.709  -1.016 -13.845  1.00  0.00    -0.504 OA
ATOM     20  H   UNL     1       3.774  -0.938 -13.594  1.00  0.00     0.293 HD
ENDBRANCH   5  19
BRANCH   6  21
ATOM     21  O   UNL     1       7.467  -0.993 -13.958  1.00  0.00    -0.500 OA
ATOM     22  H   UNL     1       7.170  -1.553 -14.693  1.00  0.00     0.294 HD
ENDBRANCH   6  21
TORSDOF 5
ENDMDL
MODEL 7
REMARK VINA RESULT:    -4.657      3.707      6.727
REMARK INTER + INTRA:          -6.518
REMARK INTER:                  -5.561
REMARK INTRA:                  -0.957
REMARK UNBOUND:                -0.772
REMARK SMILES Cc1ccc(C(=O)c2cc(O)c(O)c([N+](=O)[O-])c2)cc1
REMARK SMILES IDX 8 1 18 2 9 3 14 4 10 5 12 6 6 7 7 8 5 9 4 10 19 11 3 12
REMARK SMILES IDX 20 13 2 14 1 15 15 16 17 17 16 18 11 19 13 21
REMARK H PARENT 11 20 13 22
ROOT
ATOM      1  C   UNL     1       6.308  -0.814 -10.043  1.00  0.00     0.033 A 
ATOM      2  C   UNL     1       7.614  -1.248 -10.038  1.00  0.00     0.102 A 
ATOM      3  C   UNL     1       5.557  -0.721 -11.190  1.00  0.00     0.063 A 
ATOM      4  C   UNL     1       8.201  -1.611 -11.250  1.00  0.00     0.315 A 
ATOM      5  C   UNL     1       6.145  -1.083 -12.403  1.00  0.00     0.165 A 
ATOM      6  C   UNL     1       7.467  -1.529 -12.433  1.00  0.00     0.237 A 
ENDROOT
BRANCH   1   7
ATOM      7  C   UNL     1       5.679  -0.425  -8.745  1.00  0.00     0.193 C 
ATOM      8  O   UNL     1       6.201   0.509  -8.117  1.00  0.00    -0.289 OA
BRANCH   7   9
ATOM      9  C   UNL     1       4.503  -1.097  -8.216  1.00  0.00     0.023 A 
ATOM     10  C   UNL     1       4.429  -2.490  -8.232  1.00  0.00     0.012 A 
ATOM     11  C   UNL     1       3.450  -0.349  -7.691  1.00  0.00     0.012 A 
ATOM     12  C   UNL     1       3.301  -3.134  -7.725  1.00  0.00     0.004 A 
ATOM     13  C   UNL     1       2.321  -0.992  -7.183  1.00  0.00     0.004 A 
ATOM     14  C   UNL     1       2.246  -2.385  -7.200  1.00  0.00    -0.051 A 
ATOM     15  C   UNL     1       1.040  -3.074  -6.659  1.00  0.00     0.044 C 
ENDBRANCH   7   9
ENDBRANCH   1   7
BRANCH   4  16
ATOM     16  N   UNL     1       9.549  -2.063 -11.260  1.00  0.00     0.066 N 
ATOM     17  O   UNL     1       9.947  -2.805 -10.330  1.00  0.00    -0.258 OA
ATOM     18  O   UNL     1      10.300  -1.707 -12.198  1.00  0.00    -0.258 OA
ENDBRANCH   4  16
BRANCH   5  19
ATOM     19  O   UNL     1       5.415  -0.998 -13.551  1.00  0.00    -0.504 OA
ATOM     20  H   UNL     1       5.280  -1.888 -13.917  1.00  0.00     0.293 HD
ENDBRANCH   5  19
BRANCH   6  21
ATOM     21  O   UNL     1       8.030  -1.882 -13.625  1.00  0.00    -0.500 OA
ATOM     22  H   UNL     1       7.940  -1.151 -14.256  1.00  0.00     0.294 HD
ENDBRANCH   6  21
TORSDOF 5
ENDMDL
MODEL 8
REMARK VINA RESULT:    -4.644      3.805      7.038
REMARK INTER + INTRA:          -6.503
REMARK INTER:                  -5.571
REMARK INTRA:                  -0.931
REMARK UNBOUND:                -0.772
REMARK SMILES Cc1ccc(C(=O)c2cc(O)c(O)c([N+](=O)[O-])c2)cc1
REMARK SMILES IDX 8 1 18 2 9 3 14 4 10 5 12 6 6 7 7 8 5 9 4 10 19 11 3 12
REMARK SMILES IDX 20 13 2 14 1 15 15 16 17 17 16 18 11 19 13 21
REMARK H PARENT 11 20 13 22
ROOT
ATOM      1  C   UNL     1       5.586  -2.100 -10.461  1.00  0.00     0.033 A 
ATOM      2  C   UNL     1       4.870  -1.682 -11.558  1.00  0.00     0.102 A 
ATOM      3  C   UNL     1       6.958  -2.179 -10.451  1.00  0.00     0.063 A 
ATOM      4  C   UNL     1       5.567  -1.320 -12.711  1.00  0.00     0.315 A 
ATOM      5  C   UNL     1       7.656  -1.818 -11.604  1.00  0.00     0.165 A 
ATOM      6  C   UNL     1       6.959  -1.388 -12.735  1.00  0.00     0.237 A 
ENDROOT
BRANCH   1   7
ATOM      7  C   UNL     1       4.840  -2.487  -9.225  1.00  0.00     0.193 C 
ATOM      8  O   UNL     1       4.038  -3.429  -9.317  1.00  0.00    -0.289 OA
BRANCH   7   9
ATOM      9  C   UNL     1       5.027  -1.804  -7.955  1.00  0.00     0.023 A 
ATOM     10  C   UNL     1       5.103  -0.412  -7.916  1.00  0.00     0.012 A 
ATOM     11  C   UNL     1       5.130  -2.542  -6.776  1.00  0.00     0.012 A 
ATOM     12  C   UNL     1       5.283   0.242  -6.698  1.00  0.00     0.004 A 
ATOM     13  C   UNL     1       5.310  -1.888  -5.556  1.00  0.00     0.004 A 
ATOM     14  C   UNL     1       5.386  -0.495  -5.517  1.00  0.00    -0.051 A 
ATOM     15  C   UNL     1       5.579   0.205  -4.215  1.00  0.00     0.044 C 
ENDBRANCH   7   9
ENDBRANCH   1   7
BRANCH   4  16
ATOM     16  N   UNL     1       4.840  -0.885 -13.853  1.00  0.00     0.066 N 
ATOM     17  O   UNL     1       3.912  -0.055 -13.701  1.00  0.00    -0.258 OA
ATOM     18  O   UNL     1       5.149  -1.343 -14.978  1.00  0.00    -0.258 OA
ENDBRANCH   4  16
BRANCH   5  19
ATOM     19  O   UNL     1       9.016  -1.889 -11.613  1.00  0.00    -0.504 OA
ATOM     20  H   UNL     1       9.328  -2.041 -12.520  1.00  0.00     0.293 HD
ENDBRANCH   5  19
BRANCH   6  21
ATOM     21  O   UNL     1       7.652  -1.038 -13.857  1.00  0.00    -0.500 OA
ATOM     22  H   UNL     1       7.352  -1.575 -14.607  1.00  0.00     0.294 HD
ENDBRANCH   6  21
TORSDOF 5
ENDMDL
MODEL 9
REMARK VINA RESULT:    -4.629      4.025      7.205
REMARK INTER + INTRA:          -6.483
REMARK INTER:                  -5.824
REMARK INTRA:                  -0.659
REMARK UNBOUND:                -0.772
REMARK SMILES Cc1ccc(C(=O)c2cc(O)c(O)c([N+](=O)[O-])c2)cc1
REMARK SMILES IDX 8 1 18 2 9 3 14 4 10 5 12 6 6 7 7 8 5 9 4 10 19 11 3 12
REMARK SMILES IDX 20 13 2 14 1 15 15 16 17 17 16 18 11 19 13 21
REMARK H PARENT 11 20 13 22
ROOT
ATOM      1  C   UNL     1       6.489  -1.488 -10.561  1.00  0.00     0.033 A 
ATOM      2  C   UNL     1       6.395  -1.366 -11.928  1.00  0.00     0.102 A 
ATOM      3  C   UNL     1       7.666  -1.789  -9.917  1.00  0.00     0.063 A 
ATOM      4  C   UNL     1       7.544  -1.554 -12.694  1.00  0.00     0.315 A 
ATOM      5  C   UNL     1       8.816  -1.977 -10.684  1.00  0.00     0.165 A 
ATOM      6  C   UNL     1       8.755  -1.859 -12.074  1.00  0.00     0.237 A 
ENDROOT
BRANCH   1   7
ATOM      7  C   UNL     1       5.257  -1.287  -9.739  1.00  0.00     0.193 C 
ATOM      8  O   UNL     1       4.165  -1.388 -10.317  1.00  0.00    -0.289 OA
BRANCH   7   9
ATOM      9  C   UNL     1       5.309  -0.985  -8.317  1.00  0.00     0.023 A 
ATOM     10  C   UNL     1       5.354  -2.021  -7.385  1.00  0.00     0.012 A 
ATOM     11  C   UNL     1       5.315   0.342  -7.886  1.00  0.00     0.012 A 
ATOM     12  C   UNL     1       5.404  -1.731  -6.022  1.00  0.00     0.004 A 
ATOM     13  C   UNL     1       5.365   0.633  -6.523  1.00  0.00     0.004 A 
ATOM     14  C   UNL     1       5.410  -0.404  -5.590  1.00  0.00    -0.051 A 
ATOM     15  C   UNL     1       5.462  -0.094  -4.133  1.00  0.00     0.044 C 
ENDBRANCH   7   9
ENDBRANCH   1   7
BRANCH   4  16
ATOM     16  N   UNL     1       7.463  -1.430 -14.109  1.00  0.00     0.066 N 
ATOM     17  O   UNL     1       6.416  -0.961 -14.617  1.00  0.00    -0.258 OA
ATOM     18  O   UNL     1       8.439  -1.792 -14.806  1.00  0.00    -0.258 OA
ENDBRANCH   4  16
BRANCH   5  19
ATOM     19  O   UNL     1       9.992  -2.275 -10.064  1.00  0.00    -0.504 OA
ATOM     20  H   UNL     1      10.735  -2.013 -10.632  1.00  0.00     0.293 HD
ENDBRANCH   5  19
BRANCH   6  21
ATOM     21  O   UNL     1       9.887  -2.045 -12.813  1.00  0.00    -0.500 OA
ATOM     22  H   UNL     1       9.665  -2.038 -13.757  1.00  0.00     0.294 HD
ENDBRANCH   6  21
TORSDOF 5
ENDMDL
