MODEL 1
REMARK VINA RESULT:    -6.765      0.000      0.000
REMARK INTER + INTRA:          -8.583
REMARK INTER:                  -7.952
REMARK INTRA:                  -0.632
REMARK UNBOUND:                -0.632
REMARK SMILES O=C(O)c1cc(-c2ccc(F)cc2F)ccc1O
REMARK SMILES IDX 6 1 5 2 15 3 4 4 17 5 16 6 7 7 13 8 12 9 8 10 10 11 9 12
REMARK SMILES IDX 14 13 11 14 2 15 1 16 3 17 18 19
REMARK H PARENT 3 18 18 20
ROOT
ATOM      1  C   UNL     1       3.275   6.463   6.817  1.00  0.00    -0.014 A 
ATOM      2  C   UNL     1       2.910   7.242   5.720  1.00  0.00     0.028 A 
ATOM      3  C   UNL     1       2.960   5.104   6.843  1.00  0.00     0.013 A 
ATOM      4  C   UNL     1       2.231   6.664   4.648  1.00  0.00     0.102 A 
ATOM      5  C   UNL     1       1.917   5.305   4.673  1.00  0.00     0.130 A 
ATOM      6  C   UNL     1       2.282   4.525   5.771  1.00  0.00     0.048 A 
ENDROOT
BRANCH   1   7
ATOM      7  C   UNL     1       3.978   7.063   7.931  1.00  0.00     0.018 A 
ATOM      8  C   UNL     1       3.566   6.807   9.239  1.00  0.00     0.133 A 
ATOM      9  C   UNL     1       4.247   7.387  10.310  1.00  0.00     0.079 A 
ATOM     10  C   UNL     1       5.069   7.898   7.694  1.00  0.00     0.015 A 
ATOM     11  C   UNL     1       5.338   8.223  10.072  1.00  0.00     0.126 A 
ATOM     12  C   UNL     1       5.749   8.477   8.764  1.00  0.00     0.040 A 
ATOM     13  F   UNL     1       2.517   6.009   9.484  1.00  0.00    -0.206 F 
ATOM     14  F   UNL     1       5.992   8.780  11.099  1.00  0.00    -0.207 F 
ENDBRANCH   1   7
BRANCH   4  15
ATOM     15  C   UNL     1       1.860   7.495   3.511  1.00  0.00     0.339 C 
ATOM     16  O   UNL     1       0.756   7.499   2.960  1.00  0.00    -0.246 OA
BRANCH  15  17
ATOM     17  O   UNL     1       2.880   8.296   3.099  1.00  0.00    -0.478 OA
ATOM     18  H   UNL     1       3.215   8.862   3.826  1.00  0.00     0.297 HD
ENDBRANCH  15  17
ENDBRANCH   4  15
BRANCH   5  19
ATOM     19  O   UNL     1       1.254   4.720   3.635  1.00  0.00    -0.507 OA
ATOM     20  H   UNL     1       0.919   5.414   3.042  1.00  0.00     0.293 HD
ENDBRANCH   5  19
TORSDOF 4
ENDMDL
MODEL 2
REMARK VINA RESULT:    -6.716      1.257      2.722
REMARK INTER + INTRA:          -8.525
REMARK INTER:                  -7.949
REMARK INTRA:                  -0.577
REMARK UNBOUND:                -0.632
REMARK SMILES O=C(O)c1cc(-c2ccc(F)cc2F)ccc1O
REMARK SMILES IDX 6 1 5 2 15 3 4 4 17 5 16 6 7 7 13 8 12 9 8 10 10 11 9 12
REMARK SMILES IDX 14 13 11 14 2 15 1 16 3 17 18 19
REMARK H PARENT 3 18 18 20
ROOT
ATOM      1  C   UNL     1       3.168   6.480   6.832  1.00  0.00    -0.014 A 
ATOM      2  C   UNL     1       2.859   5.123   6.915  1.00  0.00     0.028 A 
ATOM      3  C   UNL     1       2.765   7.220   5.721  1.00  0.00     0.013 A 
ATOM      4  C   UNL     1       2.148   4.505   5.886  1.00  0.00     0.102 A 
ATOM      5  C   UNL     1       1.745   5.245   4.775  1.00  0.00     0.130 A 
ATOM      6  C   UNL     1       2.054   6.604   4.692  1.00  0.00     0.048 A 
ENDROOT
BRANCH   1   7
ATOM      7  C   UNL     1       3.907   7.121   7.899  1.00  0.00     0.018 A 
ATOM      8  C   UNL     1       3.563   6.885   9.230  1.00  0.00     0.133 A 
ATOM      9  C   UNL     1       4.278   7.505  10.255  1.00  0.00     0.079 A 
ATOM     10  C   UNL     1       4.966   7.976   7.593  1.00  0.00     0.015 A 
ATOM     11  C   UNL     1       5.336   8.361   9.949  1.00  0.00     0.126 A 
ATOM     12  C   UNL     1       5.680   8.595   8.617  1.00  0.00     0.040 A 
ATOM     13  F   UNL     1       2.546   6.068   9.541  1.00  0.00    -0.206 F 
ATOM     14  F   UNL     1       6.023   8.956  10.932  1.00  0.00    -0.207 F 
ENDBRANCH   1   7
BRANCH   4  15
ATOM     15  C   UNL     1       1.835   3.086   5.992  1.00  0.00     0.339 C 
ATOM     16  O   UNL     1       2.100   2.232   5.143  1.00  0.00    -0.246 OA
BRANCH  15  17
ATOM     17  O   UNL     1       1.202   2.781   7.157  1.00  0.00    -0.478 OA
ATOM     18  H   UNL     1       0.468   3.402   7.347  1.00  0.00     0.297 HD
ENDBRANCH  15  17
ENDBRANCH   4  15
BRANCH   5  19
ATOM     19  O   UNL     1       1.048   4.661   3.759  1.00  0.00    -0.507 OA
ATOM     20  H   UNL     1       0.974   3.706   3.934  1.00  0.00     0.293 HD
ENDBRANCH   5  19
TORSDOF 4
ENDMDL
MODEL 3
REMARK VINA RESULT:    -5.422      4.150      6.470
REMARK INTER + INTRA:          -7.004
REMARK INTER:                  -5.932
REMARK INTRA:                  -1.072
REMARK UNBOUND:                -0.632
REMARK SMILES O=C(O)c1cc(-c2ccc(F)cc2F)ccc1O
REMARK SMILES IDX 6 1 5 2 15 3 4 4 17 5 16 6 7 7 13 8 12 9 8 10 10 11 9 12
REMARK SMILES IDX 14 13 11 14 2 15 1 16 3 17 18 19
REMARK H PARENT 3 18 18 20
ROOT
ATOM      1  C   UNL     1       4.576   7.602   8.763  1.00  0.00    -0.014 A 
ATOM      2  C   UNL     1       4.301   8.912   9.153  1.00  0.00     0.028 A 
ATOM      3  C   UNL     1       5.551   6.864   9.433  1.00  0.00     0.013 A 
ATOM      4  C   UNL     1       5.002   9.485  10.215  1.00  0.00     0.102 A 
ATOM      5  C   UNL     1       5.977   8.747  10.886  1.00  0.00     0.130 A 
ATOM      6  C   UNL     1       6.252   7.436  10.495  1.00  0.00     0.048 A 
ENDROOT
BRANCH   1   7
ATOM      7  C   UNL     1       3.851   7.007   7.661  1.00  0.00     0.018 A 
ATOM      8  C   UNL     1       4.262   7.236   6.347  1.00  0.00     0.133 A 
ATOM      9  C   UNL     1       3.560   6.661   5.287  1.00  0.00     0.079 A 
ATOM     10  C   UNL     1       2.739   6.204   7.914  1.00  0.00     0.015 A 
ATOM     11  C   UNL     1       2.448   5.858   5.541  1.00  0.00     0.126 A 
ATOM     12  C   UNL     1       2.038   5.629   6.855  1.00  0.00     0.040 A 
ATOM     13  F   UNL     1       5.326   8.008   6.086  1.00  0.00    -0.206 F 
ATOM     14  F   UNL     1       1.774   5.306   4.524  1.00  0.00    -0.207 F 
ENDBRANCH   1   7
BRANCH   4  15
ATOM     15  C   UNL     1       4.699  10.854  10.608  1.00  0.00     0.339 C 
ATOM     16  O   UNL     1       5.158  11.431  11.598  1.00  0.00    -0.246 OA
BRANCH  15  17
ATOM     17  O   UNL     1       3.835  11.461   9.750  1.00  0.00    -0.478 OA
ATOM     18  H   UNL     1       3.439  10.823   9.120  1.00  0.00     0.297 HD
ENDBRANCH  15  17
ENDBRANCH   4  15
BRANCH   5  19
ATOM     19  O   UNL     1       6.672   9.288  11.926  1.00  0.00    -0.507 OA
ATOM     20  H   UNL     1       6.259  10.132  12.179  1.00  0.00     0.293 HD
ENDBRANCH   5  19
TORSDOF 4
ENDMDL
MODEL 4
REMARK VINA RESULT:    -5.399      4.482      6.866
REMARK INTER + INTRA:          -6.978
REMARK INTER:                  -5.921
REMARK INTRA:                  -1.057
REMARK UNBOUND:                -0.632
REMARK SMILES O=C(O)c1cc(-c2ccc(F)cc2F)ccc1O
REMARK SMILES IDX 6 1 5 2 15 3 4 4 17 5 16 6 7 7 13 8 12 9 8 10 10 11 9 12
REMARK SMILES IDX 14 13 11 14 2 15 1 16 3 17 18 19
REMARK H PARENT 3 18 18 20
ROOT
ATOM      1  C   UNL     1       4.557   7.610   8.762  1.00  0.00    -0.014 A 
ATOM      2  C   UNL     1       5.501   6.872   9.474  1.00  0.00     0.028 A 
ATOM      3  C   UNL     1       4.309   8.939   9.103  1.00  0.00     0.013 A 
ATOM      4  C   UNL     1       6.198   7.463  10.529  1.00  0.00     0.102 A 
ATOM      5  C   UNL     1       5.950   8.792  10.870  1.00  0.00     0.130 A 
ATOM      6  C   UNL     1       5.005   9.531  10.157  1.00  0.00     0.048 A 
ENDROOT
BRANCH   1   7
ATOM      7  C   UNL     1       3.833   6.997   7.669  1.00  0.00     0.018 A 
ATOM      8  C   UNL     1       4.240   7.211   6.352  1.00  0.00     0.133 A 
ATOM      9  C   UNL     1       3.538   6.619   5.301  1.00  0.00     0.079 A 
ATOM     10  C   UNL     1       2.726   6.191   7.936  1.00  0.00     0.015 A 
ATOM     11  C   UNL     1       2.432   5.813   5.568  1.00  0.00     0.126 A 
ATOM     12  C   UNL     1       2.026   5.599   6.885  1.00  0.00     0.040 A 
ATOM     13  F   UNL     1       5.300   7.985   6.079  1.00  0.00    -0.206 F 
ATOM     14  F   UNL     1       1.758   5.244   4.560  1.00  0.00    -0.207 F 
ENDBRANCH   1   7
BRANCH   4  15
ATOM     15  C   UNL     1       7.181   6.675  11.260  1.00  0.00     0.339 C 
ATOM     16  O   UNL     1       7.612   6.938  12.385  1.00  0.00    -0.246 OA
BRANCH  15  17
ATOM     17  O   UNL     1       7.592   5.581  10.562  1.00  0.00    -0.478 OA
ATOM     18  H   UNL     1       7.828   5.807   9.637  1.00  0.00     0.297 HD
ENDBRANCH  15  17
ENDBRANCH   4  15
BRANCH   5  19
ATOM     19  O   UNL     1       6.621   9.388  11.896  1.00  0.00    -0.507 OA
ATOM     20  H   UNL     1       6.127   9.247  12.722  1.00  0.00     0.293 HD
ENDBRANCH   5  19
TORSDOF 4
ENDMDL
MODEL 5
REMARK VINA RESULT:    -4.917      1.604      1.995
REMARK INTER + INTRA:          -6.411
REMARK INTER:                  -5.431
REMARK INTRA:                  -0.980
REMARK UNBOUND:                -0.632
REMARK SMILES O=C(O)c1cc(-c2ccc(F)cc2F)ccc1O
REMARK SMILES IDX 6 1 5 2 15 3 4 4 17 5 16 6 7 7 13 8 12 9 8 10 10 11 9 12
REMARK SMILES IDX 14 13 11 14 2 15 1 16 3 17 18 19
REMARK H PARENT 3 18 18 20
ROOT
ATOM      1  C   UNL     1       3.727   6.979   8.012  1.00  0.00    -0.014 A 
ATOM      2  C   UNL     1       3.931   7.447   6.715  1.00  0.00     0.028 A 
ATOM      3  C   UNL     1       2.662   6.121   8.284  1.00  0.00     0.013 A 
ATOM      4  C   UNL     1       3.069   7.059   5.689  1.00  0.00     0.102 A 
ATOM      5  C   UNL     1       2.003   6.202   5.961  1.00  0.00     0.130 A 
ATOM      6  C   UNL     1       1.799   5.732   7.260  1.00  0.00     0.048 A 
ENDROOT
BRANCH   1   7
ATOM      7  C   UNL     1       4.621   7.382   9.076  1.00  0.00     0.018 A 
ATOM      8  C   UNL     1       4.611   8.699   9.538  1.00  0.00     0.133 A 
ATOM      9  C   UNL     1       5.474   9.084  10.564  1.00  0.00     0.079 A 
ATOM     10  C   UNL     1       5.492   6.451   9.642  1.00  0.00     0.015 A 
ATOM     11  C   UNL     1       6.345   8.153  11.129  1.00  0.00     0.126 A 
ATOM     12  C   UNL     1       6.354   6.836  10.668  1.00  0.00     0.040 A 
ATOM     13  F   UNL     1       3.782   9.607   9.004  1.00  0.00    -0.206 F 
ATOM     14  F   UNL     1       7.174   8.521  12.114  1.00  0.00    -0.207 F 
ENDBRANCH   1   7
BRANCH   4  15
ATOM     15  C   UNL     1       3.299   7.560   4.340  1.00  0.00     0.339 C 
ATOM     16  O   UNL     1       2.479   7.531   3.419  1.00  0.00    -0.246 OA
BRANCH  15  17
ATOM     17  O   UNL     1       4.546   8.081   4.187  1.00  0.00    -0.478 OA
ATOM     18  H   UNL     1       5.004   7.706   3.406  1.00  0.00     0.297 HD
ENDBRANCH  15  17
ENDBRANCH   4  15
BRANCH   5  19
ATOM     19  O   UNL     1       1.149   5.810   4.973  1.00  0.00    -0.507 OA
ATOM     20  H   UNL     1       0.234   5.957   5.268  1.00  0.00     0.293 HD
ENDBRANCH   5  19
TORSDOF 4
ENDMDL
MODEL 6
REMARK VINA RESULT:    -4.079      8.276     10.446
REMARK INTER + INTRA:          -5.426
REMARK INTER:                  -4.374
REMARK INTRA:                  -1.052
REMARK UNBOUND:                -0.632
REMARK SMILES O=C(O)c1cc(-c2ccc(F)cc2F)ccc1O
REMARK SMILES IDX 6 1 5 2 15 3 4 4 17 5 16 6 7 7 13 8 12 9 8 10 10 11 9 12
REMARK SMILES IDX 14 13 11 14 2 15 1 16 3 17 18 19
REMARK H PARENT 3 18 18 20
ROOT
ATOM      1  C   UNL     1       3.745  13.615  13.428  1.00  0.00    -0.014 A 
ATOM      2  C   UNL     1       5.096  13.283  13.515  1.00  0.00     0.028 A 
ATOM      3  C   UNL     1       2.968  13.110  12.386  1.00  0.00     0.013 A 
ATOM      4  C   UNL     1       5.672  12.446  12.558  1.00  0.00     0.102 A 
ATOM      5  C   UNL     1       4.895  11.941  11.516  1.00  0.00     0.130 A 
ATOM      6  C   UNL     1       3.542  12.274  11.429  1.00  0.00     0.048 A 
ENDROOT
BRANCH   1   7
ATOM      7  C   UNL     1       3.148  14.484  14.419  1.00  0.00     0.018 A 
ATOM      8  C   UNL     1       2.465  13.940  15.508  1.00  0.00     0.133 A 
ATOM      9  C   UNL     1       1.890  14.782  16.461  1.00  0.00     0.079 A 
ATOM     10  C   UNL     1       3.257  15.868  14.285  1.00  0.00     0.015 A 
ATOM     11  C   UNL     1       1.999  16.166  16.326  1.00  0.00     0.126 A 
ATOM     12  C   UNL     1       2.683  16.708  15.238  1.00  0.00     0.040 A 
ATOM     13  F   UNL     1       2.348  12.612  15.650  1.00  0.00    -0.206 F 
ATOM     14  F   UNL     1       1.447  16.974  17.240  1.00  0.00    -0.207 F 
ENDBRANCH   1   7
BRANCH   4  15
ATOM     15  C   UNL     1       7.085  12.111  12.666  1.00  0.00     0.339 C 
ATOM     16  O   UNL     1       8.003  12.924  12.800  1.00  0.00    -0.246 OA
BRANCH  15  17
ATOM     17  O   UNL     1       7.306  10.769  12.606  1.00  0.00    -0.478 OA
ATOM     18  H   UNL     1       6.717  10.275  13.214  1.00  0.00     0.297 HD
ENDBRANCH  15  17
ENDBRANCH   4  15
BRANCH   5  19
ATOM     19  O   UNL     1       5.438  11.122  10.572  1.00  0.00    -0.507 OA
ATOM     20  H   UNL     1       6.255  10.729  10.924  1.00  0.00     0.293 HD
ENDBRANCH   5  19
TORSDOF 4
ENDMDL
MODEL 7
REMARK VINA RESULT:    -3.784      6.153      8.565
REMARK INTER + INTRA:          -5.080
REMARK INTER:                  -4.572
REMARK INTRA:                  -0.508
REMARK UNBOUND:                -0.632
REMARK SMILES O=C(O)c1cc(-c2ccc(F)cc2F)ccc1O
REMARK SMILES IDX 6 1 5 2 15 3 4 4 17 5 16 6 7 7 13 8 12 9 8 10 10 11 9 12
REMARK SMILES IDX 14 13 11 14 2 15 1 16 3 17 18 19
REMARK H PARENT 3 18 18 20
ROOT
ATOM      1  C   UNL     1       7.261   7.258  11.304  1.00  0.00    -0.014 A 
ATOM      2  C   UNL     1       7.337   7.925  12.526  1.00  0.00     0.028 A 
ATOM      3  C   UNL     1       8.246   6.336  10.950  1.00  0.00     0.013 A 
ATOM      4  C   UNL     1       8.398   7.670  13.395  1.00  0.00     0.102 A 
ATOM      5  C   UNL     1       9.383   6.748  13.042  1.00  0.00     0.130 A 
ATOM      6  C   UNL     1       9.307   6.080  11.819  1.00  0.00     0.048 A 
ENDROOT
BRANCH   1   7
ATOM      7  C   UNL     1       6.162   7.523  10.400  1.00  0.00     0.018 A 
ATOM      8  C   UNL     1       5.581   8.791  10.357  1.00  0.00     0.133 A 
ATOM      9  C   UNL     1       4.521   9.041   9.485  1.00  0.00     0.079 A 
ATOM     10  C   UNL     1       5.685   6.508   9.572  1.00  0.00     0.015 A 
ATOM     11  C   UNL     1       4.043   8.026   8.657  1.00  0.00     0.126 A 
ATOM     12  C   UNL     1       4.626   6.759   8.700  1.00  0.00     0.040 A 
ATOM     13  F   UNL     1       6.026   9.776  11.149  1.00  0.00    -0.206 F 
ATOM     14  F   UNL     1       3.026   8.266   7.820  1.00  0.00    -0.207 F 
ENDBRANCH   1   7
BRANCH   4  15
ATOM     15  C   UNL     1       8.458   8.377  14.667  1.00  0.00     0.339 C 
ATOM     16  O   UNL     1       9.412   8.357  15.450  1.00  0.00    -0.246 OA
BRANCH  15  17
ATOM     17  O   UNL     1       7.325   9.087  14.920  1.00  0.00    -0.478 OA
ATOM     18  H   UNL     1       7.351   9.513  15.803  1.00  0.00     0.297 HD
ENDBRANCH  15  17
ENDBRANCH   4  15
BRANCH   5  19
ATOM     19  O   UNL     1      10.427   6.484  13.878  1.00  0.00    -0.507 OA
ATOM     20  H   UNL     1      11.245   6.425  13.354  1.00  0.00     0.293 HD
ENDBRANCH   5  19
TORSDOF 4
ENDMDL
