MODEL 1
REMARK VINA RESULT:    -5.138      0.000      0.000
REMARK INTER + INTRA:          -7.128
REMARK INTER:                  -6.339
REMARK INTRA:                  -0.789
REMARK UNBOUND:                -0.789
REMARK SMILES Cc1ccc(C(=O)c2cc(O)c(O)c([N+](=O)[O-])c2)cc1
REMARK SMILES IDX 8 1 18 2 9 3 14 4 10 5 12 6 6 7 7 8 5 9 4 10 19 11 3 12
REMARK SMILES IDX 20 13 2 14 1 15 15 16 17 17 16 18 11 19 13 21
REMARK H PARENT 11 20 13 22
ROOT
ATOM      1  C   UNL     1       2.563   7.109   6.717  1.00  0.00     0.033 A 
ATOM      2  C   UNL     1       2.473   5.764   6.989  1.00  0.00     0.102 A 
ATOM      3  C   UNL     1       2.218   7.650   5.501  1.00  0.00     0.063 A 
ATOM      4  C   UNL     1       2.010   4.911   5.988  1.00  0.00     0.315 A 
ATOM      5  C   UNL     1       1.755   6.796   4.499  1.00  0.00     0.165 A 
ATOM      6  C   UNL     1       1.650   5.426   4.743  1.00  0.00     0.237 A 
ENDROOT
BRANCH   1   7
ATOM      7  C   UNL     1       3.060   8.024   7.789  1.00  0.00     0.193 C 
ATOM      8  O   UNL     1       2.505   9.128   7.897  1.00  0.00    -0.289 OA
BRANCH   7   9
ATOM      9  C   UNL     1       4.146   7.659   8.684  1.00  0.00     0.023 A 
ATOM     10  C   UNL     1       5.456   8.029   8.377  1.00  0.00     0.012 A 
ATOM     11  C   UNL     1       3.880   6.939   9.848  1.00  0.00     0.012 A 
ATOM     12  C   UNL     1       6.498   7.679   9.236  1.00  0.00     0.004 A 
ATOM     13  C   UNL     1       4.922   6.588  10.707  1.00  0.00     0.004 A 
ATOM     14  C   UNL     1       6.232   6.958  10.401  1.00  0.00    -0.051 A 
ATOM     15  C   UNL     1       7.347   6.583  11.317  1.00  0.00     0.044 C 
ENDBRANCH   7   9
ENDBRANCH   1   7
BRANCH   4  16
ATOM     16  N   UNL     1       1.910   3.517   6.255  1.00  0.00     0.066 N 
ATOM     17  O   UNL     1       2.231   2.704   5.355  1.00  0.00    -0.258 OA
ATOM     18  O   UNL     1       1.507   3.143   7.380  1.00  0.00    -0.258 OA
ENDBRANCH   4  16
BRANCH   5  19
ATOM     19  O   UNL     1       1.407   7.314   3.288  1.00  0.00    -0.504 OA
ATOM     20  H   UNL     1       0.774   6.721   2.850  1.00  0.00     0.293 HD
ENDBRANCH   5  19
BRANCH   6  21
ATOM     21  O   UNL     1       1.195   4.602   3.755  1.00  0.00    -0.500 OA
ATOM     22  H   UNL     1       1.015   5.119   2.955  1.00  0.00     0.294 HD
ENDBRANCH   6  21
TORSDOF 5
ENDMDL
MODEL 2
REMARK VINA RESULT:    -5.094      2.062      3.556
REMARK INTER + INTRA:          -7.073
REMARK INTER:                  -6.290
REMARK INTRA:                  -0.784
REMARK UNBOUND:                -0.789
REMARK SMILES Cc1ccc(C(=O)c2cc(O)c(O)c([N+](=O)[O-])c2)cc1
REMARK SMILES IDX 8 1 18 2 9 3 14 4 10 5 12 6 6 7 7 8 5 9 4 10 19 11 3 12
REMARK SMILES IDX 20 13 2 14 1 15 15 16 17 17 16 18 11 19 13 21
REMARK H PARENT 11 20 13 22
ROOT
ATOM      1  C   UNL     1       3.770   5.673   6.751  1.00  0.00     0.033 A 
ATOM      2  C   UNL     1       3.429   6.642   5.836  1.00  0.00     0.102 A 
ATOM      3  C   UNL     1       3.279   4.390   6.698  1.00  0.00     0.063 A 
ATOM      4  C   UNL     1       2.547   6.307   4.808  1.00  0.00     0.315 A 
ATOM      5  C   UNL     1       2.396   4.056   5.671  1.00  0.00     0.165 A 
ATOM      6  C   UNL     1       2.031   5.015   4.725  1.00  0.00     0.237 A 
ENDROOT
BRANCH   1   7
ATOM      7  C   UNL     1       4.715   6.031   7.852  1.00  0.00     0.193 C 
ATOM      8  O   UNL     1       5.552   5.178   8.183  1.00  0.00    -0.289 OA
BRANCH   7   9
ATOM      9  C   UNL     1       4.677   7.321   8.523  1.00  0.00     0.023 A 
ATOM     10  C   UNL     1       3.950   7.471   9.704  1.00  0.00     0.012 A 
ATOM     11  C   UNL     1       5.368   8.407   7.987  1.00  0.00     0.012 A 
ATOM     12  C   UNL     1       3.914   8.707  10.348  1.00  0.00     0.004 A 
ATOM     13  C   UNL     1       5.332   9.645   8.631  1.00  0.00     0.004 A 
ATOM     14  C   UNL     1       4.605   9.795   9.812  1.00  0.00    -0.051 A 
ATOM     15  C   UNL     1       4.565  11.116  10.500  1.00  0.00     0.044 C 
ENDBRANCH   7   9
ENDBRANCH   1   7
BRANCH   4  16
ATOM     16  N   UNL     1       2.186   7.298   3.854  1.00  0.00     0.066 N 
ATOM     17  O   UNL     1       3.067   8.086   3.435  1.00  0.00    -0.258 OA
ATOM     18  O   UNL     1       0.998   7.354   3.460  1.00  0.00    -0.258 OA
ENDBRANCH   4  16
BRANCH   5  19
ATOM     19  O   UNL     1       1.900   2.789   5.602  1.00  0.00    -0.504 OA
ATOM     20  H   UNL     1       1.053   2.796   5.127  1.00  0.00     0.293 HD
ENDBRANCH   5  19
BRANCH   6  21
ATOM     21  O   UNL     1       1.167   4.675   3.725  1.00  0.00    -0.500 OA
ATOM     22  H   UNL     1       1.300   3.746   3.480  1.00  0.00     0.294 HD
ENDBRANCH   6  21
TORSDOF 5
ENDMDL
MODEL 3
REMARK VINA RESULT:    -4.367      3.704      6.875
REMARK INTER + INTRA:          -6.177
REMARK INTER:                  -5.223
REMARK INTRA:                  -0.954
REMARK UNBOUND:                -0.789
REMARK SMILES Cc1ccc(C(=O)c2cc(O)c(O)c([N+](=O)[O-])c2)cc1
REMARK SMILES IDX 8 1 18 2 9 3 14 4 10 5 12 6 6 7 7 8 5 9 4 10 19 11 3 12
REMARK SMILES IDX 20 13 2 14 1 15 15 16 17 17 16 18 11 19 13 21
REMARK H PARENT 11 20 13 22
ROOT
ATOM      1  C   UNL     1       4.454   7.595   9.602  1.00  0.00     0.033 A 
ATOM      2  C   UNL     1       5.543   7.051  10.244  1.00  0.00     0.102 A 
ATOM      3  C   UNL     1       4.116   8.923   9.703  1.00  0.00     0.063 A 
ATOM      4  C   UNL     1       6.339   7.884  11.030  1.00  0.00     0.315 A 
ATOM      5  C   UNL     1       4.912   9.757  10.489  1.00  0.00     0.165 A 
ATOM      6  C   UNL     1       6.024   9.237  11.153  1.00  0.00     0.237 A 
ENDROOT
BRANCH   1   7
ATOM      7  C   UNL     1       3.601   6.702   8.761  1.00  0.00     0.193 C 
ATOM      8  O   UNL     1       3.156   5.674   9.292  1.00  0.00    -0.289 OA
BRANCH   7   9
ATOM      9  C   UNL     1       3.291   7.004   7.373  1.00  0.00     0.023 A 
ATOM     10  C   UNL     1       1.962   7.050   6.949  1.00  0.00     0.012 A 
ATOM     11  C   UNL     1       4.320   7.247   6.464  1.00  0.00     0.012 A 
ATOM     12  C   UNL     1       1.664   7.339   5.618  1.00  0.00     0.004 A 
ATOM     13  C   UNL     1       4.023   7.536   5.132  1.00  0.00     0.004 A 
ATOM     14  C   UNL     1       2.694   7.582   4.709  1.00  0.00    -0.051 A 
ATOM     15  C   UNL     1       2.375   7.890   3.285  1.00  0.00     0.044 C 
ENDBRANCH   7   9
ENDBRANCH   1   7
BRANCH   4  16
ATOM     16  N   UNL     1       7.468   7.336  11.699  1.00  0.00     0.066 N 
ATOM     17  O   UNL     1       8.020   6.316  11.220  1.00  0.00    -0.258 OA
ATOM     18  O   UNL     1       7.879   7.888  12.746  1.00  0.00    -0.258 OA
ENDBRANCH   4  16
BRANCH   5  19
ATOM     19  O   UNL     1       4.592  11.077  10.600  1.00  0.00    -0.504 OA
ATOM     20  H   UNL     1       3.978  11.323   9.889  1.00  0.00     0.293 HD
ENDBRANCH   5  19
BRANCH   6  21
ATOM     21  O   UNL     1       6.795  10.062  11.919  1.00  0.00    -0.500 OA
ATOM     22  H   UNL     1       6.478  10.047  12.835  1.00  0.00     0.294 HD
ENDBRANCH   6  21
TORSDOF 5
ENDMDL
MODEL 4
REMARK VINA RESULT:    -4.317      3.843      7.163
REMARK INTER + INTRA:          -6.115
REMARK INTER:                  -5.390
REMARK INTRA:                  -0.725
REMARK UNBOUND:                -0.789
REMARK SMILES Cc1ccc(C(=O)c2cc(O)c(O)c([N+](=O)[O-])c2)cc1
REMARK SMILES IDX 8 1 18 2 9 3 14 4 10 5 12 6 6 7 7 8 5 9 4 10 19 11 3 12
REMARK SMILES IDX 20 13 2 14 1 15 15 16 17 17 16 18 11 19 13 21
REMARK H PARENT 11 20 13 22
ROOT
ATOM      1  C   UNL     1       4.948   7.919   9.392  1.00  0.00     0.033 A 
ATOM      2  C   UNL     1       5.086   9.122  10.045  1.00  0.00     0.102 A 
ATOM      3  C   UNL     1       5.669   6.799   9.732  1.00  0.00     0.063 A 
ATOM      4  C   UNL     1       5.995   9.209  11.098  1.00  0.00     0.315 A 
ATOM      5  C   UNL     1       6.580   6.886  10.786  1.00  0.00     0.165 A 
ATOM      6  C   UNL     1       6.742   8.091  11.469  1.00  0.00     0.237 A 
ENDROOT
BRANCH   1   7
ATOM      7  C   UNL     1       3.974   7.825   8.264  1.00  0.00     0.193 C 
ATOM      8  O   UNL     1       3.623   8.886   7.726  1.00  0.00    -0.289 OA
BRANCH   7   9
ATOM      9  C   UNL     1       3.444   6.555   7.794  1.00  0.00     0.023 A 
ATOM     10  C   UNL     1       2.348   5.977   8.435  1.00  0.00     0.012 A 
ATOM     11  C   UNL     1       4.031   5.915   6.703  1.00  0.00     0.012 A 
ATOM     12  C   UNL     1       1.839   4.759   7.985  1.00  0.00     0.004 A 
ATOM     13  C   UNL     1       3.523   4.696   6.252  1.00  0.00     0.004 A 
ATOM     14  C   UNL     1       2.426   4.118   6.893  1.00  0.00    -0.051 A 
ATOM     15  C   UNL     1       1.884   2.815   6.413  1.00  0.00     0.044 C 
ENDBRANCH   7   9
ENDBRANCH   1   7
BRANCH   4  16
ATOM     16  N   UNL     1       6.148  10.446  11.783  1.00  0.00     0.066 N 
ATOM     17  O   UNL     1       7.158  10.617  12.508  1.00  0.00    -0.258 OA
ATOM     18  O   UNL     1       5.271  11.329  11.641  1.00  0.00    -0.258 OA
ENDBRANCH   4  16
BRANCH   5  19
ATOM     19  O   UNL     1       7.302   5.785  11.138  1.00  0.00    -0.504 OA
ATOM     20  H   UNL     1       7.526   5.275  10.342  1.00  0.00     0.293 HD
ENDBRANCH   5  19
BRANCH   6  21
ATOM     21  O   UNL     1       7.636   8.164  12.499  1.00  0.00    -0.500 OA
ATOM     22  H   UNL     1       7.650   7.321  12.978  1.00  0.00     0.294 HD
ENDBRANCH   6  21
TORSDOF 5
ENDMDL
MODEL 5
REMARK VINA RESULT:    -4.278      3.471      7.163
REMARK INTER + INTRA:          -6.067
REMARK INTER:                  -5.110
REMARK INTRA:                  -0.958
REMARK UNBOUND:                -0.789
REMARK SMILES Cc1ccc(C(=O)c2cc(O)c(O)c([N+](=O)[O-])c2)cc1
REMARK SMILES IDX 8 1 18 2 9 3 14 4 10 5 12 6 6 7 7 8 5 9 4 10 19 11 3 12
REMARK SMILES IDX 20 13 2 14 1 15 15 16 17 17 16 18 11 19 13 21
REMARK H PARENT 11 20 13 22
ROOT
ATOM      1  C   UNL     1       4.368   7.341   9.626  1.00  0.00     0.033 A 
ATOM      2  C   UNL     1       4.183   8.698   9.752  1.00  0.00     0.102 A 
ATOM      3  C   UNL     1       5.392   6.666  10.246  1.00  0.00     0.063 A 
ATOM      4  C   UNL     1       5.074   9.421  10.545  1.00  0.00     0.315 A 
ATOM      5  C   UNL     1       6.284   7.389  11.039  1.00  0.00     0.165 A 
ATOM      6  C   UNL     1       6.124   8.767  11.189  1.00  0.00     0.237 A 
ENDROOT
BRANCH   1   7
ATOM      7  C   UNL     1       3.414   6.566   8.776  1.00  0.00     0.193 C 
ATOM      8  O   UNL     1       2.834   5.605   9.303  1.00  0.00    -0.289 OA
BRANCH   7   9
ATOM      9  C   UNL     1       3.157   6.904   7.385  1.00  0.00     0.023 A 
ATOM     10  C   UNL     1       1.845   7.000   6.921  1.00  0.00     0.012 A 
ATOM     11  C   UNL     1       4.223   7.132   6.515  1.00  0.00     0.012 A 
ATOM     12  C   UNL     1       1.599   7.324   5.587  1.00  0.00     0.004 A 
ATOM     13  C   UNL     1       3.977   7.457   5.180  1.00  0.00     0.004 A 
ATOM     14  C   UNL     1       2.665   7.553   4.716  1.00  0.00    -0.051 A 
ATOM     15  C   UNL     1       2.402   7.899   3.290  1.00  0.00     0.044 C 
ENDBRANCH   7   9
ENDBRANCH   1   7
BRANCH   4  16
ATOM     16  N   UNL     1       4.896  10.825  10.686  1.00  0.00     0.066 N 
ATOM     17  O   UNL     1       5.206  11.369  11.773  1.00  0.00    -0.258 OA
ATOM     18  O   UNL     1       4.436  11.477   9.720  1.00  0.00    -0.258 OA
ENDBRANCH   4  16
BRANCH   5  19
ATOM     19  O   UNL     1       7.305   6.737  11.662  1.00  0.00    -0.504 OA
ATOM     20  H   UNL     1       8.120   6.839  11.144  1.00  0.00     0.293 HD
ENDBRANCH   5  19
BRANCH   6  21
ATOM     21  O   UNL     1       7.002   9.463  11.968  1.00  0.00    -0.500 OA
ATOM     22  H   UNL     1       6.681  10.370  12.090  1.00  0.00     0.294 HD
ENDBRANCH   6  21
TORSDOF 5
ENDMDL
MODEL 6
REMARK VINA RESULT:    -4.258      3.603      6.513
REMARK INTER + INTRA:          -6.043
REMARK INTER:                  -5.135
REMARK INTRA:                  -0.908
REMARK UNBOUND:                -0.789
REMARK SMILES Cc1ccc(C(=O)c2cc(O)c(O)c([N+](=O)[O-])c2)cc1
REMARK SMILES IDX 8 1 18 2 9 3 14 4 10 5 12 6 6 7 7 8 5 9 4 10 19 11 3 12
REMARK SMILES IDX 20 13 2 14 1 15 15 16 17 17 16 18 11 19 13 21
REMARK H PARENT 11 20 13 22
ROOT
ATOM      1  C   UNL     1       5.116   8.269   8.484  1.00  0.00     0.033 A 
ATOM      2  C   UNL     1       5.850   7.476   9.336  1.00  0.00     0.102 A 
ATOM      3  C   UNL     1       4.760   9.561   8.788  1.00  0.00     0.063 A 
ATOM      4  C   UNL     1       6.250   8.006  10.562  1.00  0.00     0.315 A 
ATOM      5  C   UNL     1       5.160  10.092  10.015  1.00  0.00     0.165 A 
ATOM      6  C   UNL     1       5.906   9.314  10.902  1.00  0.00     0.237 A 
ENDROOT
BRANCH   1   7
ATOM      7  C   UNL     1       4.687   7.701   7.170  1.00  0.00     0.193 C 
ATOM      8  O   UNL     1       5.019   8.318   6.147  1.00  0.00    -0.289 OA
BRANCH   7   9
ATOM      9  C   UNL     1       3.911   6.476   7.067  1.00  0.00     0.023 A 
ATOM     10  C   UNL     1       2.855   6.242   7.949  1.00  0.00     0.012 A 
ATOM     11  C   UNL     1       4.221   5.533   6.087  1.00  0.00     0.012 A 
ATOM     12  C   UNL     1       2.110   5.067   7.850  1.00  0.00     0.004 A 
ATOM     13  C   UNL     1       3.477   4.357   5.987  1.00  0.00     0.004 A 
ATOM     14  C   UNL     1       2.421   4.124   6.869  1.00  0.00    -0.051 A 
ATOM     15  C   UNL     1       1.626   2.868   6.764  1.00  0.00     0.044 C 
ENDBRANCH   7   9
ENDBRANCH   1   7
BRANCH   4  16
ATOM     16  N   UNL     1       7.009   7.199  11.452  1.00  0.00     0.066 N 
ATOM     17  O   UNL     1       6.825   5.957  11.451  1.00  0.00    -0.258 OA
ATOM     18  O   UNL     1       7.840   7.750  12.211  1.00  0.00    -0.258 OA
ENDBRANCH   4  16
BRANCH   5  19
ATOM     19  O   UNL     1       4.817  11.371  10.334  1.00  0.00    -0.504 OA
ATOM     20  H   UNL     1       5.393  11.991   9.857  1.00  0.00     0.293 HD
ENDBRANCH   5  19
BRANCH   6  21
ATOM     21  O   UNL     1       6.292   9.845  12.098  1.00  0.00    -0.500 OA
ATOM     22  H   UNL     1       7.222   9.625  12.268  1.00  0.00     0.294 HD
ENDBRANCH   6  21
TORSDOF 5
ENDMDL
MODEL 7
REMARK VINA RESULT:    -4.220      1.246      2.700
REMARK INTER + INTRA:          -5.995
REMARK INTER:                  -5.276
REMARK INTRA:                  -0.719
REMARK UNBOUND:                -0.789
REMARK SMILES Cc1ccc(C(=O)c2cc(O)c(O)c([N+](=O)[O-])c2)cc1
REMARK SMILES IDX 8 1 18 2 9 3 14 4 10 5 12 6 6 7 7 8 5 9 4 10 19 11 3 12
REMARK SMILES IDX 20 13 2 14 1 15 15 16 17 17 16 18 11 19 13 21
REMARK H PARENT 11 20 13 22
ROOT
ATOM      1  C   UNL     1       2.923   7.097   7.166  1.00  0.00     0.033 A 
ATOM      2  C   UNL     1       2.672   7.606   5.913  1.00  0.00     0.102 A 
ATOM      3  C   UNL     1       2.658   5.792   7.507  1.00  0.00     0.063 A 
ATOM      4  C   UNL     1       2.126   6.762   4.946  1.00  0.00     0.315 A 
ATOM      5  C   UNL     1       2.111   4.947   6.541  1.00  0.00     0.165 A 
ATOM      6  C   UNL     1       1.845   5.432   5.260  1.00  0.00     0.237 A 
ENDROOT
BRANCH   1   7
ATOM      7  C   UNL     1       3.509   8.001   8.201  1.00  0.00     0.193 C 
ATOM      8  O   UNL     1       3.012   9.132   8.315  1.00  0.00    -0.289 OA
BRANCH   7   9
ATOM      9  C   UNL     1       4.615   7.597   9.053  1.00  0.00     0.023 A 
ATOM     10  C   UNL     1       5.925   7.915   8.693  1.00  0.00     0.012 A 
ATOM     11  C   UNL     1       4.368   6.892  10.231  1.00  0.00     0.012 A 
ATOM     12  C   UNL     1       6.986   7.528   9.511  1.00  0.00     0.004 A 
ATOM     13  C   UNL     1       5.429   6.505  11.050  1.00  0.00     0.004 A 
ATOM     14  C   UNL     1       6.739   6.823  10.689  1.00  0.00    -0.051 A 
ATOM     15  C   UNL     1       7.874   6.408  11.562  1.00  0.00     0.044 C 
ENDBRANCH   7   9
ENDBRANCH   1   7
BRANCH   4  16
ATOM     16  N   UNL     1       1.862   7.274   3.647  1.00  0.00     0.066 N 
ATOM     17  O   UNL     1       0.694   7.204   3.194  1.00  0.00    -0.258 OA
ATOM     18  O   UNL     1       2.802   7.781   2.992  1.00  0.00    -0.258 OA
ENDBRANCH   4  16
BRANCH   5  19
ATOM     19  O   UNL     1       1.842   3.650   6.862  1.00  0.00    -0.504 OA
ATOM     20  H   UNL     1       1.776   3.561   7.827  1.00  0.00     0.293 HD
ENDBRANCH   5  19
BRANCH   6  21
ATOM     21  O   UNL     1       1.310   4.596   4.323  1.00  0.00    -0.500 OA
ATOM     22  H   UNL     1       0.609   5.058   3.837  1.00  0.00     0.294 HD
ENDBRANCH   6  21
TORSDOF 5
ENDMDL
MODEL 8
REMARK VINA RESULT:    -4.160      2.091      2.490
REMARK INTER + INTRA:          -5.922
REMARK INTER:                  -5.725
REMARK INTRA:                  -0.197
REMARK UNBOUND:                -0.789
REMARK SMILES Cc1ccc(C(=O)c2cc(O)c(O)c([N+](=O)[O-])c2)cc1
REMARK SMILES IDX 8 1 18 2 9 3 14 4 10 5 12 6 6 7 7 8 5 9 4 10 19 11 3 12
REMARK SMILES IDX 20 13 2 14 1 15 15 16 17 17 16 18 11 19 13 21
REMARK H PARENT 11 20 13 22
ROOT
ATOM      1  C   UNL     1       4.053   6.261   7.294  1.00  0.00     0.033 A 
ATOM      2  C   UNL     1       3.393   5.056   7.241  1.00  0.00     0.102 A 
ATOM      3  C   UNL     1       3.998   7.188   6.280  1.00  0.00     0.063 A 
ATOM      4  C   UNL     1       2.633   4.761   6.109  1.00  0.00     0.315 A 
ATOM      5  C   UNL     1       3.238   6.893   5.148  1.00  0.00     0.165 A 
ATOM      6  C   UNL     1       2.555   5.679   5.062  1.00  0.00     0.237 A 
ENDROOT
BRANCH   1   7
ATOM      7  C   UNL     1       4.868   6.577   8.506  1.00  0.00     0.193 C 
ATOM      8  O   UNL     1       5.595   5.677   8.953  1.00  0.00    -0.289 OA
BRANCH   7   9
ATOM      9  C   UNL     1       4.828   7.877   9.155  1.00  0.00     0.023 A 
ATOM     10  C   UNL     1       5.721   8.170  10.186  1.00  0.00     0.012 A 
ATOM     11  C   UNL     1       3.897   8.832   8.748  1.00  0.00     0.012 A 
ATOM     12  C   UNL     1       5.683   9.418  10.808  1.00  0.00     0.004 A 
ATOM     13  C   UNL     1       3.858  10.081   9.370  1.00  0.00     0.004 A 
ATOM     14  C   UNL     1       4.752  10.374  10.400  1.00  0.00    -0.051 A 
ATOM     15  C   UNL     1       4.710  11.706  11.067  1.00  0.00     0.044 C 
ENDBRANCH   7   9
ENDBRANCH   1   7
BRANCH   4  16
ATOM     16  N   UNL     1       1.944   3.519   6.040  1.00  0.00     0.066 N 
ATOM     17  O   UNL     1       2.150   2.766   5.058  1.00  0.00    -0.258 OA
ATOM     18  O   UNL     1       1.152   3.213   6.961  1.00  0.00    -0.258 OA
ENDBRANCH   4  16
BRANCH   5  19
ATOM     19  O   UNL     1       3.171   7.800   4.133  1.00  0.00    -0.504 OA
ATOM     20  H   UNL     1       2.257   8.113   4.036  1.00  0.00     0.293 HD
ENDBRANCH   5  19
BRANCH   6  21
ATOM     21  O   UNL     1       1.815   5.403   3.950  1.00  0.00    -0.500 OA
ATOM     22  H   UNL     1       1.408   6.218   3.618  1.00  0.00     0.294 HD
ENDBRANCH   6  21
TORSDOF 5
ENDMDL
MODEL 9
REMARK VINA RESULT:    -4.117      4.144      7.299
REMARK INTER + INTRA:          -5.868
REMARK INTER:                  -5.068
REMARK INTRA:                  -0.800
REMARK UNBOUND:                -0.789
REMARK SMILES Cc1ccc(C(=O)c2cc(O)c(O)c([N+](=O)[O-])c2)cc1
REMARK SMILES IDX 8 1 18 2 9 3 14 4 10 5 12 6 6 7 7 8 5 9 4 10 19 11 3 12
REMARK SMILES IDX 20 13 2 14 1 15 15 16 17 17 16 18 11 19 13 21
REMARK H PARENT 11 20 13 22
ROOT
ATOM      1  C   UNL     1       4.930   8.675   9.755  1.00  0.00     0.033 A 
ATOM      2  C   UNL     1       5.885   8.943  10.708  1.00  0.00     0.102 A 
ATOM      3  C   UNL     1       3.995   9.600   9.354  1.00  0.00     0.063 A 
ATOM      4  C   UNL     1       5.908  10.210  11.291  1.00  0.00     0.315 A 
ATOM      5  C   UNL     1       4.017  10.867   9.938  1.00  0.00     0.165 A 
ATOM      6  C   UNL     1       4.975  11.172  10.907  1.00  0.00     0.237 A 
ENDROOT
BRANCH   1   7
ATOM      7  C   UNL     1       4.905   7.318   9.130  1.00  0.00     0.193 C 
ATOM      8  O   UNL     1       5.623   6.444   9.640  1.00  0.00    -0.289 OA
BRANCH   7   9
ATOM      9  C   UNL     1       4.082   7.007   7.972  1.00  0.00     0.023 A 
ATOM     10  C   UNL     1       2.864   6.348   8.139  1.00  0.00     0.012 A 
ATOM     11  C   UNL     1       4.511   7.369   6.695  1.00  0.00     0.012 A 
ATOM     12  C   UNL     1       2.075   6.051   7.028  1.00  0.00     0.004 A 
ATOM     13  C   UNL     1       3.721   7.072   5.584  1.00  0.00     0.004 A 
ATOM     14  C   UNL     1       2.503   6.413   5.750  1.00  0.00    -0.051 A 
ATOM     15  C   UNL     1       1.660   6.094   4.563  1.00  0.00     0.044 C 
ENDBRANCH   7   9
ENDBRANCH   1   7
BRANCH   4  16
ATOM     16  N   UNL     1       6.890  10.502  12.277  1.00  0.00     0.066 N 
ATOM     17  O   UNL     1       7.267   9.587  13.048  1.00  0.00    -0.258 OA
ATOM     18  O   UNL     1       7.352  11.665  12.346  1.00  0.00    -0.258 OA
ENDBRANCH   4  16
BRANCH   5  19
ATOM     19  O   UNL     1       3.099  11.797   9.552  1.00  0.00    -0.504 OA
ATOM     20  H   UNL     1       3.480  12.686   9.641  1.00  0.00     0.293 HD
ENDBRANCH   5  19
BRANCH   6  21
ATOM     21  O   UNL     1       4.986  12.415  11.470  1.00  0.00    -0.500 OA
ATOM     22  H   UNL     1       5.886  12.776  11.445  1.00  0.00     0.294 HD
ENDBRANCH   6  21
TORSDOF 5
ENDMDL
