MODEL 1
REMARK VINA RESULT:    -6.761      0.000      0.000
REMARK INTER + INTRA:          -8.526
REMARK INTER:                  -7.947
REMARK INTRA:                  -0.580
REMARK UNBOUND:                -0.580
REMARK SMILES O=C(O)c1cc(-c2ccc(F)cc2F)ccc1O
REMARK SMILES IDX 6 1 5 2 15 3 4 4 17 5 16 6 7 7 13 8 12 9 8 10 10 11 9 12
REMARK SMILES IDX 14 13 11 14 2 15 1 16 3 17 18 19
REMARK H PARENT 3 18 18 20
ROOT
ATOM      1  C   UNL     1      -1.573  -7.959  -1.965  1.00  0.00    -0.014 A 
ATOM      2  C   UNL     1      -0.998  -7.652  -0.732  1.00  0.00     0.028 A 
ATOM      3  C   UNL     1      -1.915  -6.936  -2.849  1.00  0.00     0.013 A 
ATOM      4  C   UNL     1      -0.766  -6.321  -0.382  1.00  0.00     0.102 A 
ATOM      5  C   UNL     1      -1.109  -5.298  -1.266  1.00  0.00     0.130 A 
ATOM      6  C   UNL     1      -1.683  -5.606  -2.500  1.00  0.00     0.048 A 
ENDROOT
BRANCH   1   7
ATOM      7  C   UNL     1      -1.815  -9.339  -2.327  1.00  0.00     0.018 A 
ATOM      8  C   UNL     1      -3.041  -9.713  -2.878  1.00  0.00     0.133 A 
ATOM      9  C   UNL     1      -3.271 -11.044  -3.226  1.00  0.00     0.079 A 
ATOM     10  C   UNL     1      -0.820 -10.294  -2.126  1.00  0.00     0.015 A 
ATOM     11  C   UNL     1      -2.276 -12.000  -3.024  1.00  0.00     0.126 A 
ATOM     12  C   UNL     1      -1.050 -11.625  -2.474  1.00  0.00     0.040 A 
ATOM     13  F   UNL     1      -4.010  -8.807  -3.075  1.00  0.00    -0.206 F 
ATOM     14  F   UNL     1      -2.495 -13.278  -3.358  1.00  0.00    -0.207 F 
ENDBRANCH   1   7
BRANCH   4  15
ATOM     15  C   UNL     1      -0.165  -6.021   0.910  1.00  0.00     0.339 C 
ATOM     16  O   UNL     1      -0.633  -5.253   1.754  1.00  0.00    -0.246 OA
BRANCH  15  17
ATOM     17  O   UNL     1       1.002  -6.692   1.107  1.00  0.00    -0.478 OA
ATOM     18  H   UNL     1       0.848  -7.622   1.375  1.00  0.00     0.297 HD
ENDBRANCH  15  17
ENDBRANCH   4  15
BRANCH   5  19
ATOM     19  O   UNL     1      -0.889  -3.992  -0.944  1.00  0.00    -0.507 OA
ATOM     20  H   UNL     1      -1.103  -3.435  -1.713  1.00  0.00     0.293 HD
ENDBRANCH   5  19
TORSDOF 4
ENDMDL
MODEL 2
REMARK VINA RESULT:    -6.692      1.343      2.785
REMARK INTER + INTRA:          -8.445
REMARK INTER:                  -7.774
REMARK INTRA:                  -0.671
REMARK UNBOUND:                -0.580
REMARK SMILES O=C(O)c1cc(-c2ccc(F)cc2F)ccc1O
REMARK SMILES IDX 6 1 5 2 15 3 4 4 17 5 16 6 7 7 13 8 12 9 8 10 10 11 9 12
REMARK SMILES IDX 14 13 11 14 2 15 1 16 3 17 18 19
REMARK H PARENT 3 18 18 20
ROOT
ATOM      1  C   UNL     1      -1.745  -8.061  -2.008  1.00  0.00    -0.014 A 
ATOM      2  C   UNL     1      -2.064  -7.103  -2.969  1.00  0.00     0.028 A 
ATOM      3  C   UNL     1      -1.276  -7.663  -0.756  1.00  0.00     0.013 A 
ATOM      4  C   UNL     1      -1.916  -5.747  -2.680  1.00  0.00     0.102 A 
ATOM      5  C   UNL     1      -1.447  -5.349  -1.428  1.00  0.00     0.130 A 
ATOM      6  C   UNL     1      -1.128  -6.307  -0.465  1.00  0.00     0.048 A 
ENDROOT
BRANCH   1   7
ATOM      7  C   UNL     1      -1.897  -9.468  -2.308  1.00  0.00     0.018 A 
ATOM      8  C   UNL     1      -3.081  -9.938  -2.879  1.00  0.00     0.133 A 
ATOM      9  C   UNL     1      -3.224 -11.296  -3.167  1.00  0.00     0.079 A 
ATOM     10  C   UNL     1      -0.858 -10.355  -2.027  1.00  0.00     0.015 A 
ATOM     11  C   UNL     1      -2.185 -12.182  -2.885  1.00  0.00     0.126 A 
ATOM     12  C   UNL     1      -1.002 -11.711  -2.316  1.00  0.00     0.040 A 
ATOM     13  F   UNL     1      -4.091  -9.100  -3.152  1.00  0.00    -0.206 F 
ATOM     14  F   UNL     1      -2.322 -13.486  -3.161  1.00  0.00    -0.207 F 
ENDBRANCH   1   7
BRANCH   4  15
ATOM     15  C   UNL     1      -2.255  -4.762  -3.698  1.00  0.00     0.339 C 
ATOM     16  O   UNL     1      -1.568  -3.784  -4.002  1.00  0.00    -0.246 OA
BRANCH  15  17
ATOM     17  O   UNL     1      -3.443  -5.032  -4.304  1.00  0.00    -0.478 OA
ATOM     18  H   UNL     1      -3.392  -5.835  -4.864  1.00  0.00     0.297 HD
ENDBRANCH  15  17
ENDBRANCH   4  15
BRANCH   5  19
ATOM     19  O   UNL     1      -1.296  -4.028  -1.124  1.00  0.00    -0.507 OA
ATOM     20  H   UNL     1      -1.887  -3.802  -0.385  1.00  0.00     0.293 HD
ENDBRANCH   5  19
TORSDOF 4
ENDMDL
MODEL 3
REMARK VINA RESULT:    -6.673      1.701      3.169
REMARK INTER + INTRA:          -8.423
REMARK INTER:                  -7.808
REMARK INTRA:                  -0.615
REMARK UNBOUND:                -0.580
REMARK SMILES O=C(O)c1cc(-c2ccc(F)cc2F)ccc1O
REMARK SMILES IDX 6 1 5 2 15 3 4 4 17 5 16 6 7 7 13 8 12 9 8 10 10 11 9 12
REMARK SMILES IDX 14 13 11 14 2 15 1 16 3 17 18 19
REMARK H PARENT 3 18 18 20
ROOT
ATOM      1  C   UNL     1      -1.581  -8.042  -1.941  1.00  0.00    -0.014 A 
ATOM      2  C   UNL     1      -1.956  -7.069  -2.868  1.00  0.00     0.028 A 
ATOM      3  C   UNL     1      -1.032  -7.663  -0.716  1.00  0.00     0.013 A 
ATOM      4  C   UNL     1      -1.781  -5.717  -2.570  1.00  0.00     0.102 A 
ATOM      5  C   UNL     1      -1.233  -5.339  -1.345  1.00  0.00     0.130 A 
ATOM      6  C   UNL     1      -0.858  -6.312  -0.417  1.00  0.00     0.048 A 
ENDROOT
BRANCH   1   7
ATOM      7  C   UNL     1      -1.760  -9.444  -2.250  1.00  0.00     0.018 A 
ATOM      8  C   UNL     1      -0.726 -10.351  -2.013  1.00  0.00     0.133 A 
ATOM      9  C   UNL     1      -0.903 -11.702  -2.313  1.00  0.00     0.079 A 
ATOM     10  C   UNL     1      -2.969  -9.888  -2.784  1.00  0.00     0.015 A 
ATOM     11  C   UNL     1      -2.112 -12.146  -2.848  1.00  0.00     0.126 A 
ATOM     12  C   UNL     1      -3.145 -11.239  -3.083  1.00  0.00     0.040 A 
ATOM     13  F   UNL     1       0.443  -9.940  -1.503  1.00  0.00    -0.206 F 
ATOM     14  F   UNL     1      -2.282 -13.443  -3.135  1.00  0.00    -0.207 F 
ENDBRANCH   1   7
BRANCH   4  15
ATOM     15  C   UNL     1      -2.180  -4.717  -3.551  1.00  0.00     0.339 C 
ATOM     16  O   UNL     1      -1.485  -3.770  -3.926  1.00  0.00    -0.246 OA
BRANCH  15  17
ATOM     17  O   UNL     1      -3.433  -4.935  -4.033  1.00  0.00    -0.478 OA
ATOM     18  H   UNL     1      -3.945  -5.542  -3.458  1.00  0.00     0.297 HD
ENDBRANCH  15  17
ENDBRANCH   4  15
BRANCH   5  19
ATOM     19  O   UNL     1      -1.055  -4.023  -1.034  1.00  0.00    -0.507 OA
ATOM     20  H   UNL     1      -1.894  -3.550  -1.168  1.00  0.00     0.293 HD
ENDBRANCH   5  19
TORSDOF 4
ENDMDL
MODEL 4
REMARK VINA RESULT:    -5.602      1.208      1.495
REMARK INTER + INTRA:          -7.164
REMARK INTER:                  -6.396
REMARK INTRA:                  -0.767
REMARK UNBOUND:                -0.580
REMARK SMILES O=C(O)c1cc(-c2ccc(F)cc2F)ccc1O
REMARK SMILES IDX 6 1 5 2 15 3 4 4 17 5 16 6 7 7 13 8 12 9 8 10 10 11 9 12
REMARK SMILES IDX 14 13 11 14 2 15 1 16 3 17 18 19
REMARK H PARENT 3 18 18 20
ROOT
ATOM      1  C   UNL     1      -1.862  -8.653  -1.946  1.00  0.00    -0.014 A 
ATOM      2  C   UNL     1      -1.099  -8.268  -0.844  1.00  0.00     0.028 A 
ATOM      3  C   UNL     1      -2.477  -7.686  -2.740  1.00  0.00     0.013 A 
ATOM      4  C   UNL     1      -0.951  -6.915  -0.536  1.00  0.00     0.102 A 
ATOM      5  C   UNL     1      -1.566  -5.948  -1.331  1.00  0.00     0.130 A 
ATOM      6  C   UNL     1      -2.330  -6.334  -2.434  1.00  0.00     0.048 A 
ENDROOT
BRANCH   1   7
ATOM      7  C   UNL     1      -2.016 -10.056  -2.265  1.00  0.00     0.018 A 
ATOM      8  C   UNL     1      -1.756 -10.513  -3.557  1.00  0.00     0.133 A 
ATOM      9  C   UNL     1      -1.907 -11.867  -3.861  1.00  0.00     0.079 A 
ATOM     10  C   UNL     1      -2.426 -10.951  -1.277  1.00  0.00     0.015 A 
ATOM     11  C   UNL     1      -2.317 -12.762  -2.873  1.00  0.00     0.126 A 
ATOM     12  C   UNL     1      -2.576 -12.304  -1.581  1.00  0.00     0.040 A 
ATOM     13  F   UNL     1      -1.364  -9.666  -4.519  1.00  0.00    -0.206 F 
ATOM     14  F   UNL     1      -2.462 -14.061  -3.163  1.00  0.00    -0.207 F 
ENDBRANCH   1   7
BRANCH   4  15
ATOM     15  C   UNL     1      -0.149  -6.533   0.618  1.00  0.00     0.339 C 
ATOM     16  O   UNL     1       0.923  -7.048   0.944  1.00  0.00    -0.246 OA
BRANCH  15  17
ATOM     17  O   UNL     1      -0.714  -5.519   1.328  1.00  0.00    -0.478 OA
ATOM     18  H   UNL     1      -0.709  -4.676   0.827  1.00  0.00     0.297 HD
ENDBRANCH  15  17
ENDBRANCH   4  15
BRANCH   5  19
ATOM     19  O   UNL     1      -1.434  -4.621  -1.048  1.00  0.00    -0.507 OA
ATOM     20  H   UNL     1      -2.317  -4.213  -1.022  1.00  0.00     0.293 HD
ENDBRANCH   5  19
TORSDOF 4
ENDMDL
MODEL 5
REMARK VINA RESULT:    -5.321      4.302      6.536
REMARK INTER + INTRA:          -6.833
REMARK INTER:                  -5.748
REMARK INTRA:                  -1.086
REMARK UNBOUND:                -0.580
REMARK SMILES O=C(O)c1cc(-c2ccc(F)cc2F)ccc1O
REMARK SMILES IDX 6 1 5 2 15 3 4 4 17 5 16 6 7 7 13 8 12 9 8 10 10 11 9 12
REMARK SMILES IDX 14 13 11 14 2 15 1 16 3 17 18 19
REMARK H PARENT 3 18 18 20
ROOT
ATOM      1  C   UNL     1      -1.766 -10.461  -2.332  1.00  0.00    -0.014 A 
ATOM      2  C   UNL     1      -2.158 -11.539  -1.540  1.00  0.00     0.028 A 
ATOM      3  C   UNL     1      -1.602 -10.628  -3.707  1.00  0.00     0.013 A 
ATOM      4  C   UNL     1      -2.385 -12.787  -2.122  1.00  0.00     0.102 A 
ATOM      5  C   UNL     1      -2.221 -12.954  -3.497  1.00  0.00     0.130 A 
ATOM      6  C   UNL     1      -1.829 -11.874  -4.290  1.00  0.00     0.048 A 
ENDROOT
BRANCH   1   7
ATOM      7  C   UNL     1      -1.529  -9.167  -1.728  1.00  0.00     0.018 A 
ATOM      8  C   UNL     1      -0.250  -8.824  -1.287  1.00  0.00     0.133 A 
ATOM      9  C   UNL     1      -0.026  -7.576  -0.705  1.00  0.00     0.079 A 
ATOM     10  C   UNL     1      -2.581  -8.262  -1.589  1.00  0.00     0.015 A 
ATOM     11  C   UNL     1      -1.078  -6.672  -0.565  1.00  0.00     0.126 A 
ATOM     12  C   UNL     1      -2.356  -7.015  -1.008  1.00  0.00     0.040 A 
ATOM     13  F   UNL     1       0.771  -9.683  -1.410  1.00  0.00    -0.206 F 
ATOM     14  F   UNL     1      -0.864  -5.474  -0.007  1.00  0.00    -0.207 F 
ENDBRANCH   1   7
BRANCH   4  15
ATOM     15  C   UNL     1      -2.794 -13.901  -1.278  1.00  0.00     0.339 C 
ATOM     16  O   UNL     1      -3.065 -15.036  -1.676  1.00  0.00    -0.246 OA
BRANCH  15  17
ATOM     17  O   UNL     1      -2.849 -13.560   0.038  1.00  0.00    -0.478 OA
ATOM     18  H   UNL     1      -1.981 -13.671   0.480  1.00  0.00     0.297 HD
ENDBRANCH  15  17
ENDBRANCH   4  15
BRANCH   5  19
ATOM     19  O   UNL     1      -2.438 -14.164  -4.086  1.00  0.00    -0.507 OA
ATOM     20  H   UNL     1      -2.005 -14.176  -4.957  1.00  0.00     0.293 HD
ENDBRANCH   5  19
TORSDOF 4
ENDMDL
MODEL 6
REMARK VINA RESULT:    -5.303      4.432      6.693
REMARK INTER + INTRA:          -6.813
REMARK INTER:                  -5.727
REMARK INTRA:                  -1.086
REMARK UNBOUND:                -0.580
REMARK SMILES O=C(O)c1cc(-c2ccc(F)cc2F)ccc1O
REMARK SMILES IDX 6 1 5 2 15 3 4 4 17 5 16 6 7 7 13 8 12 9 8 10 10 11 9 12
REMARK SMILES IDX 14 13 11 14 2 15 1 16 3 17 18 19
REMARK H PARENT 3 18 18 20
ROOT
ATOM      1  C   UNL     1      -2.071 -10.367  -2.677  1.00  0.00    -0.014 A 
ATOM      2  C   UNL     1      -1.927 -10.975  -3.924  1.00  0.00     0.028 A 
ATOM      3  C   UNL     1      -2.402 -11.134  -1.561  1.00  0.00     0.013 A 
ATOM      4  C   UNL     1      -2.114 -12.351  -4.055  1.00  0.00     0.102 A 
ATOM      5  C   UNL     1      -2.446 -13.119  -2.938  1.00  0.00     0.130 A 
ATOM      6  C   UNL     1      -2.590 -12.510  -1.691  1.00  0.00     0.048 A 
ENDROOT
BRANCH   1   7
ATOM      7  C   UNL     1      -1.878  -8.939  -2.541  1.00  0.00     0.018 A 
ATOM      8  C   UNL     1      -2.952  -8.067  -2.719  1.00  0.00     0.133 A 
ATOM      9  C   UNL     1      -2.761  -6.691  -2.587  1.00  0.00     0.079 A 
ATOM     10  C   UNL     1      -0.615  -8.436  -2.230  1.00  0.00     0.015 A 
ATOM     11  C   UNL     1      -1.498  -6.188  -2.277  1.00  0.00     0.126 A 
ATOM     12  C   UNL     1      -0.425  -7.061  -2.097  1.00  0.00     0.040 A 
ATOM     13  F   UNL     1      -4.172  -8.534  -3.021  1.00  0.00    -0.206 F 
ATOM     14  F   UNL     1      -1.315  -4.868  -2.149  1.00  0.00    -0.207 F 
ENDBRANCH   1   7
BRANCH   4  15
ATOM     15  C   UNL     1      -1.959 -12.967  -5.365  1.00  0.00     0.339 C 
ATOM     16  O   UNL     1      -1.985 -14.179  -5.592  1.00  0.00    -0.246 OA
BRANCH  15  17
ATOM     17  O   UNL     1      -1.776 -12.048  -6.352  1.00  0.00    -0.478 OA
ATOM     18  H   UNL     1      -0.828 -11.832  -6.478  1.00  0.00     0.297 HD
ENDBRANCH  15  17
ENDBRANCH   4  15
BRANCH   5  19
ATOM     19  O   UNL     1      -2.633 -14.465  -3.045  1.00  0.00    -0.507 OA
ATOM     20  H   UNL     1      -3.144 -14.651  -3.851  1.00  0.00     0.293 HD
ENDBRANCH   5  19
TORSDOF 4
ENDMDL
MODEL 7
REMARK VINA RESULT:    -5.265      3.949      6.206
REMARK INTER + INTRA:          -6.768
REMARK INTER:                  -5.698
REMARK INTRA:                  -1.070
REMARK UNBOUND:                -0.580
REMARK SMILES O=C(O)c1cc(-c2ccc(F)cc2F)ccc1O
REMARK SMILES IDX 6 1 5 2 15 3 4 4 17 5 16 6 7 7 13 8 12 9 8 10 10 11 9 12
REMARK SMILES IDX 14 13 11 14 2 15 1 16 3 17 18 19
REMARK H PARENT 3 18 18 20
ROOT
ATOM      1  C   UNL     1      -2.067 -10.476  -2.615  1.00  0.00    -0.014 A 
ATOM      2  C   UNL     1      -2.347 -11.304  -1.529  1.00  0.00     0.028 A 
ATOM      3  C   UNL     1      -1.974 -11.015  -3.898  1.00  0.00     0.013 A 
ATOM      4  C   UNL     1      -2.534 -12.673  -1.726  1.00  0.00     0.102 A 
ATOM      5  C   UNL     1      -2.442 -13.212  -3.009  1.00  0.00     0.130 A 
ATOM      6  C   UNL     1      -2.162 -12.382  -4.096  1.00  0.00     0.048 A 
ENDROOT
BRANCH   1   7
ATOM      7  C   UNL     1      -1.871  -9.056  -2.412  1.00  0.00     0.018 A 
ATOM      8  C   UNL     1      -2.928  -8.168  -2.611  1.00  0.00     0.133 A 
ATOM      9  C   UNL     1      -2.735  -6.800  -2.414  1.00  0.00     0.079 A 
ATOM     10  C   UNL     1      -0.623  -8.578  -2.015  1.00  0.00     0.015 A 
ATOM     11  C   UNL     1      -1.487  -6.322  -2.018  1.00  0.00     0.126 A 
ATOM     12  C   UNL     1      -0.431  -7.211  -1.818  1.00  0.00     0.040 A 
ATOM     13  F   UNL     1      -4.134  -8.611  -2.995  1.00  0.00    -0.206 F 
ATOM     14  F   UNL     1      -1.300  -5.009  -1.829  1.00  0.00    -0.207 F 
ENDBRANCH   1   7
BRANCH   4  15
ATOM     15  C   UNL     1      -2.826 -13.522  -0.579  1.00  0.00     0.339 C 
ATOM     16  O   UNL     1      -2.778 -14.754  -0.572  1.00  0.00    -0.246 OA
BRANCH  15  17
ATOM     17  O   UNL     1      -3.168 -12.802   0.525  1.00  0.00    -0.478 OA
ATOM     18  H   UNL     1      -4.139 -12.780   0.659  1.00  0.00     0.297 HD
ENDBRANCH  15  17
ENDBRANCH   4  15
BRANCH   5  19
ATOM     19  O   UNL     1      -2.622 -14.546  -3.223  1.00  0.00    -0.507 OA
ATOM     20  H   UNL     1      -3.414 -14.841  -2.740  1.00  0.00     0.293 HD
ENDBRANCH   5  19
TORSDOF 4
ENDMDL
MODEL 8
REMARK VINA RESULT:    -4.864      8.468     10.764
REMARK INTER + INTRA:          -6.297
REMARK INTER:                  -5.254
REMARK INTRA:                  -1.043
REMARK UNBOUND:                -0.580
REMARK SMILES O=C(O)c1cc(-c2ccc(F)cc2F)ccc1O
REMARK SMILES IDX 6 1 5 2 15 3 4 4 17 5 16 6 7 7 13 8 12 9 8 10 10 11 9 12
REMARK SMILES IDX 14 13 11 14 2 15 1 16 3 17 18 19
REMARK H PARENT 3 18 18 20
ROOT
ATOM      1  C   UNL     1      -5.700 -16.458   0.755  1.00  0.00    -0.014 A 
ATOM      2  C   UNL     1      -5.591 -16.827   2.095  1.00  0.00     0.028 A 
ATOM      3  C   UNL     1      -6.752 -16.948  -0.020  1.00  0.00     0.013 A 
ATOM      4  C   UNL     1      -6.533 -17.686   2.661  1.00  0.00     0.102 A 
ATOM      5  C   UNL     1      -7.584 -18.176   1.887  1.00  0.00     0.130 A 
ATOM      6  C   UNL     1      -7.694 -17.807   0.545  1.00  0.00     0.048 A 
ENDROOT
BRANCH   1   7
ATOM      7  C   UNL     1      -4.723 -15.568   0.166  1.00  0.00     0.018 A 
ATOM      8  C   UNL     1      -3.695 -16.081  -0.626  1.00  0.00     0.133 A 
ATOM      9  C   UNL     1      -2.755 -15.220  -1.191  1.00  0.00     0.079 A 
ATOM     10  C   UNL     1      -4.811 -14.194   0.391  1.00  0.00     0.015 A 
ATOM     11  C   UNL     1      -2.842 -13.846  -0.966  1.00  0.00     0.126 A 
ATOM     12  C   UNL     1      -3.871 -13.334  -0.175  1.00  0.00     0.040 A 
ATOM     13  F   UNL     1      -3.595 -17.399  -0.850  1.00  0.00    -0.206 F 
ATOM     14  F   UNL     1      -1.940 -13.019  -1.508  1.00  0.00    -0.207 F 
ENDBRANCH   1   7
BRANCH   4  15
ATOM     15  C   UNL     1      -6.401 -18.059   4.063  1.00  0.00     0.339 C 
ATOM     16  O   UNL     1      -6.858 -19.084   4.575  1.00  0.00    -0.246 OA
BRANCH  15  17
ATOM     17  O   UNL     1      -5.702 -17.138   4.781  1.00  0.00    -0.478 OA
ATOM     18  H   UNL     1      -6.189 -16.291   4.860  1.00  0.00     0.297 HD
ENDBRANCH  15  17
ENDBRANCH   4  15
BRANCH   5  19
ATOM     19  O   UNL     1      -8.515 -19.016   2.421  1.00  0.00    -0.507 OA
ATOM     20  H   UNL     1      -8.296 -19.181   3.354  1.00  0.00     0.293 HD
ENDBRANCH   5  19
TORSDOF 4
ENDMDL
MODEL 9
REMARK VINA RESULT:    -4.623      8.687     11.091
REMARK INTER + INTRA:          -6.014
REMARK INTER:                  -4.985
REMARK INTRA:                  -1.029
REMARK UNBOUND:                -0.580
REMARK SMILES O=C(O)c1cc(-c2ccc(F)cc2F)ccc1O
REMARK SMILES IDX 6 1 5 2 15 3 4 4 17 5 16 6 7 7 13 8 12 9 8 10 10 11 9 12
REMARK SMILES IDX 14 13 11 14 2 15 1 16 3 17 18 19
REMARK H PARENT 3 18 18 20
ROOT
ATOM      1  C   UNL     1       0.417 -14.816  -8.060  1.00  0.00    -0.014 A 
ATOM      2  C   UNL     1       0.175 -14.967  -9.425  1.00  0.00     0.028 A 
ATOM      3  C   UNL     1       1.526 -15.428  -7.476  1.00  0.00     0.013 A 
ATOM      4  C   UNL     1       1.043 -15.731 -10.207  1.00  0.00     0.102 A 
ATOM      5  C   UNL     1       2.151 -16.343  -9.623  1.00  0.00     0.130 A 
ATOM      6  C   UNL     1       2.393 -16.192  -8.257  1.00  0.00     0.048 A 
ENDROOT
BRANCH   1   7
ATOM      7  C   UNL     1      -0.483 -14.026  -7.248  1.00  0.00     0.018 A 
ATOM      8  C   UNL     1      -1.689 -14.570  -6.806  1.00  0.00     0.133 A 
ATOM      9  C   UNL     1      -2.554 -13.804  -6.023  1.00  0.00     0.079 A 
ATOM     10  C   UNL     1      -0.141 -12.717  -6.907  1.00  0.00     0.015 A 
ATOM     11  C   UNL     1      -2.213 -12.496  -5.683  1.00  0.00     0.126 A 
ATOM     12  C   UNL     1      -1.006 -11.953  -6.124  1.00  0.00     0.040 A 
ATOM     13  F   UNL     1      -2.033 -15.825  -7.127  1.00  0.00    -0.206 F 
ATOM     14  F   UNL     1      -3.042 -11.760  -4.932  1.00  0.00    -0.207 F 
ENDBRANCH   1   7
BRANCH   4  15
ATOM     15  C   UNL     1       0.773 -15.876 -11.631  1.00  0.00     0.339 C 
ATOM     16  O   UNL     1       1.016 -16.880 -12.304  1.00  0.00    -0.246 OA
BRANCH  15  17
ATOM     17  O   UNL     1       0.206 -14.761 -12.167  1.00  0.00    -0.478 OA
ATOM     18  H   UNL     1       0.882 -14.123 -12.481  1.00  0.00     0.297 HD
ENDBRANCH  15  17
ENDBRANCH   4  15
BRANCH   5  19
ATOM     19  O   UNL     1       3.011 -17.092 -10.369  1.00  0.00    -0.507 OA
ATOM     20  H   UNL     1       3.721 -17.428  -9.795  1.00  0.00     0.293 HD
ENDBRANCH   5  19
TORSDOF 4
ENDMDL
