MODEL 1
REMARK VINA RESULT:    -5.355      0.000      0.000
REMARK INTER + INTRA:          -7.374
REMARK INTER:                  -6.607
REMARK INTRA:                  -0.767
REMARK UNBOUND:                -0.767
REMARK SMILES Cc1ccc(C(=O)c2cc(O)c(O)c([N+](=O)[O-])c2)cc1
REMARK SMILES IDX 8 1 18 2 9 3 14 4 10 5 12 6 6 7 7 8 5 9 4 10 19 11 3 12
REMARK SMILES IDX 20 13 2 14 1 15 15 16 17 17 16 18 11 19 13 21
REMARK H PARENT 11 20 13 22
ROOT
ATOM      1  C   UNL     1      -1.903  -7.999  -1.106  1.00  0.00     0.033 A 
ATOM      2  C   UNL     1      -2.163  -7.266  -2.241  1.00  0.00     0.102 A 
ATOM      3  C   UNL     1      -1.341  -7.452   0.023  1.00  0.00     0.063 A 
ATOM      4  C   UNL     1      -1.842  -5.909  -2.246  1.00  0.00     0.315 A 
ATOM      5  C   UNL     1      -1.019  -6.095   0.017  1.00  0.00     0.165 A 
ATOM      6  C   UNL     1      -1.271  -5.322  -1.118  1.00  0.00     0.237 A 
ENDROOT
BRANCH   1   7
ATOM      7  C   UNL     1      -2.247  -9.453  -1.100  1.00  0.00     0.193 C 
ATOM      8  O   UNL     1      -2.619  -9.945  -0.024  1.00  0.00    -0.289 OA
BRANCH   7   9
ATOM      9  C   UNL     1      -2.157 -10.280  -2.293  1.00  0.00     0.023 A 
ATOM     10  C   UNL     1      -1.009 -11.034  -2.535  1.00  0.00     0.012 A 
ATOM     11  C   UNL     1      -3.220 -10.320  -3.195  1.00  0.00     0.012 A 
ATOM     12  C   UNL     1      -0.923 -11.827  -3.678  1.00  0.00     0.004 A 
ATOM     13  C   UNL     1      -3.135 -11.114  -4.340  1.00  0.00     0.004 A 
ATOM     14  C   UNL     1      -1.987 -11.868  -4.581  1.00  0.00    -0.051 A 
ATOM     15  C   UNL     1      -1.894 -12.715  -5.804  1.00  0.00     0.044 C 
ENDBRANCH   7   9
ENDBRANCH   1   7
BRANCH   4  16
ATOM     16  N   UNL     1      -2.105  -5.138  -3.412  1.00  0.00     0.066 N 
ATOM     17  O   UNL     1      -1.363  -4.161  -3.673  1.00  0.00    -0.258 OA
ATOM     18  O   UNL     1      -3.070  -5.458  -4.145  1.00  0.00    -0.258 OA
ENDBRANCH   4  16
BRANCH   5  19
ATOM     19  O   UNL     1      -0.461  -5.535   1.128  1.00  0.00    -0.504 OA
ATOM     20  H   UNL     1      -1.139  -5.435   1.817  1.00  0.00     0.293 HD
ENDBRANCH   5  19
BRANCH   6  21
ATOM     21  O   UNL     1      -0.952  -3.995  -1.110  1.00  0.00    -0.500 OA
ATOM     22  H   UNL     1       0.008  -3.890  -1.193  1.00  0.00     0.294 HD
ENDBRANCH   6  21
TORSDOF 5
ENDMDL
MODEL 2
REMARK VINA RESULT:    -5.335      2.036      3.393
REMARK INTER + INTRA:          -7.350
REMARK INTER:                  -6.591
REMARK INTRA:                  -0.758
REMARK UNBOUND:                -0.767
REMARK SMILES Cc1ccc(C(=O)c2cc(O)c(O)c([N+](=O)[O-])c2)cc1
REMARK SMILES IDX 8 1 18 2 9 3 14 4 10 5 12 6 6 7 7 8 5 9 4 10 19 11 3 12
REMARK SMILES IDX 20 13 2 14 1 15 15 16 17 17 16 18 11 19 13 21
REMARK H PARENT 11 20 13 22
ROOT
ATOM      1  C   UNL     1      -1.162  -7.744  -2.756  1.00  0.00     0.033 A 
ATOM      2  C   UNL     1      -0.723  -7.692  -1.453  1.00  0.00     0.102 A 
ATOM      3  C   UNL     1      -1.526  -6.624  -3.465  1.00  0.00     0.063 A 
ATOM      4  C   UNL     1      -0.642  -6.450  -0.825  1.00  0.00     0.315 A 
ATOM      5  C   UNL     1      -1.447  -5.381  -2.837  1.00  0.00     0.165 A 
ATOM      6  C   UNL     1      -1.004  -5.294  -1.516  1.00  0.00     0.237 A 
ENDROOT
BRANCH   1   7
ATOM      7  C   UNL     1      -1.249  -9.075  -3.429  1.00  0.00     0.193 C 
ATOM      8  O   UNL     1      -0.948  -9.125  -4.631  1.00  0.00    -0.289 OA
BRANCH   7   9
ATOM      9  C   UNL     1      -1.664 -10.278  -2.726  1.00  0.00     0.023 A 
ATOM     10  C   UNL     1      -0.733 -11.016  -1.995  1.00  0.00     0.012 A 
ATOM     11  C   UNL     1      -2.994 -10.695  -2.784  1.00  0.00     0.012 A 
ATOM     12  C   UNL     1      -1.132 -12.170  -1.321  1.00  0.00     0.004 A 
ATOM     13  C   UNL     1      -3.394 -11.849  -2.109  1.00  0.00     0.004 A 
ATOM     14  C   UNL     1      -2.463 -12.587  -1.378  1.00  0.00    -0.051 A 
ATOM     15  C   UNL     1      -2.888 -13.821  -0.659  1.00  0.00     0.044 C 
ENDBRANCH   7   9
ENDBRANCH   1   7
BRANCH   4  16
ATOM     16  N   UNL     1      -0.190  -6.381   0.521  1.00  0.00     0.066 N 
ATOM     17  O   UNL     1       0.751  -7.128   0.883  1.00  0.00    -0.258 OA
ATOM     18  O   UNL     1      -0.743  -5.576   1.306  1.00  0.00    -0.258 OA
ENDBRANCH   4  16
BRANCH   5  19
ATOM     19  O   UNL     1      -1.803  -4.260  -3.524  1.00  0.00    -0.504 OA
ATOM     20  H   UNL     1      -2.672  -3.952  -3.218  1.00  0.00     0.293 HD
ENDBRANCH   5  19
BRANCH   6  21
ATOM     21  O   UNL     1      -0.930  -4.072  -0.912  1.00  0.00    -0.500 OA
ATOM     22  H   UNL     1      -1.779  -3.612  -1.001  1.00  0.00     0.294 HD
ENDBRANCH   6  21
TORSDOF 5
ENDMDL
MODEL 3
REMARK VINA RESULT:    -4.571      3.536      7.106
REMARK INTER + INTRA:          -6.407
REMARK INTER:                  -5.471
REMARK INTRA:                  -0.936
REMARK UNBOUND:                -0.767
REMARK SMILES Cc1ccc(C(=O)c2cc(O)c(O)c([N+](=O)[O-])c2)cc1
REMARK SMILES IDX 8 1 18 2 9 3 14 4 10 5 12 6 6 7 7 8 5 9 4 10 19 11 3 12
REMARK SMILES IDX 20 13 2 14 1 15 15 16 17 17 16 18 11 19 13 21
REMARK H PARENT 11 20 13 22
ROOT
ATOM      1  C   UNL     1      -2.665 -10.778  -3.122  1.00  0.00     0.033 A 
ATOM      2  C   UNL     1      -2.776 -11.692  -2.100  1.00  0.00     0.102 A 
ATOM      3  C   UNL     1      -2.416 -11.141  -4.425  1.00  0.00     0.063 A 
ATOM      4  C   UNL     1      -2.632 -13.047  -2.399  1.00  0.00     0.315 A 
ATOM      5  C   UNL     1      -2.271 -12.496  -4.723  1.00  0.00     0.165 A 
ATOM      6  C   UNL     1      -2.380 -13.450  -3.710  1.00  0.00     0.237 A 
ENDROOT
BRANCH   1   7
ATOM      7  C   UNL     1      -2.818  -9.327  -2.803  1.00  0.00     0.193 C 
ATOM      8  O   UNL     1      -3.686  -8.696  -3.426  1.00  0.00    -0.289 OA
BRANCH   7   9
ATOM      9  C   UNL     1      -1.999  -8.656  -1.807  1.00  0.00     0.023 A 
ATOM     10  C   UNL     1      -0.621  -8.872  -1.777  1.00  0.00     0.012 A 
ATOM     11  C   UNL     1      -2.590  -7.797  -0.881  1.00  0.00     0.012 A 
ATOM     12  C   UNL     1       0.165  -8.229  -0.821  1.00  0.00     0.004 A 
ATOM     13  C   UNL     1      -1.803  -7.153   0.076  1.00  0.00     0.004 A 
ATOM     14  C   UNL     1      -0.426  -7.369   0.105  1.00  0.00    -0.051 A 
ATOM     15  C   UNL     1       0.415  -6.683   1.128  1.00  0.00     0.044 C 
ENDBRANCH   7   9
ENDBRANCH   1   7
BRANCH   4  16
ATOM     16  N   UNL     1      -2.746 -14.003  -1.353  1.00  0.00     0.066 N 
ATOM     17  O   UNL     1      -2.393 -13.679  -0.194  1.00  0.00    -0.258 OA
ATOM     18  O   UNL     1      -3.195 -15.142  -1.620  1.00  0.00    -0.258 OA
ENDBRANCH   4  16
BRANCH   5  19
ATOM     19  O   UNL     1      -2.026 -12.875  -6.009  1.00  0.00    -0.504 OA
ATOM     20  H   UNL     1      -1.165 -13.323  -6.057  1.00  0.00     0.293 HD
ENDBRANCH   5  19
BRANCH   6  21
ATOM     21  O   UNL     1      -2.237 -14.772  -4.015  1.00  0.00    -0.500 OA
ATOM     22  H   UNL     1      -2.512 -15.313  -3.257  1.00  0.00     0.294 HD
ENDBRANCH   6  21
TORSDOF 5
ENDMDL
MODEL 4
REMARK VINA RESULT:    -4.550      1.661      3.118
REMARK INTER + INTRA:          -6.382
REMARK INTER:                  -5.658
REMARK INTRA:                  -0.724
REMARK UNBOUND:                -0.767
REMARK SMILES Cc1ccc(C(=O)c2cc(O)c(O)c([N+](=O)[O-])c2)cc1
REMARK SMILES IDX 8 1 18 2 9 3 14 4 10 5 12 6 6 7 7 8 5 9 4 10 19 11 3 12
REMARK SMILES IDX 20 13 2 14 1 15 15 16 17 17 16 18 11 19 13 21
REMARK H PARENT 11 20 13 22
ROOT
ATOM      1  C   UNL     1      -2.711  -6.989  -2.045  1.00  0.00     0.033 A 
ATOM      2  C   UNL     1      -2.177  -6.992  -0.777  1.00  0.00     0.102 A 
ATOM      3  C   UNL     1      -2.432  -6.010  -2.970  1.00  0.00     0.063 A 
ATOM      4  C   UNL     1      -1.315  -5.958  -0.414  1.00  0.00     0.315 A 
ATOM      5  C   UNL     1      -1.570  -4.975  -2.606  1.00  0.00     0.165 A 
ATOM      6  C   UNL     1      -1.010  -4.950  -1.328  1.00  0.00     0.237 A 
ENDROOT
BRANCH   1   7
ATOM      7  C   UNL     1      -3.635  -8.096  -2.435  1.00  0.00     0.193 C 
ATOM      8  O   UNL     1      -4.852  -7.891  -2.313  1.00  0.00    -0.289 OA
BRANCH   7   9
ATOM      9  C   UNL     1      -3.154  -9.372  -2.939  1.00  0.00     0.023 A 
ATOM     10  C   UNL     1      -3.918 -10.092  -3.858  1.00  0.00     0.012 A 
ATOM     11  C   UNL     1      -1.928  -9.877  -2.504  1.00  0.00     0.012 A 
ATOM     12  C   UNL     1      -3.456 -11.316  -4.342  1.00  0.00     0.004 A 
ATOM     13  C   UNL     1      -1.466 -11.101  -2.988  1.00  0.00     0.004 A 
ATOM     14  C   UNL     1      -2.229 -11.821  -3.907  1.00  0.00    -0.051 A 
ATOM     15  C   UNL     1      -1.737 -13.130  -4.424  1.00  0.00     0.044 C 
ENDBRANCH   7   9
ENDBRANCH   1   7
BRANCH   4  16
ATOM     16  N   UNL     1      -0.755  -5.948   0.893  1.00  0.00     0.066 N 
ATOM     17  O   UNL     1      -0.847  -4.905   1.584  1.00  0.00    -0.258 OA
ATOM     18  O   UNL     1      -0.187  -6.982   1.317  1.00  0.00    -0.258 OA
ENDBRANCH   4  16
BRANCH   5  19
ATOM     19  O   UNL     1      -1.281  -3.997  -3.510  1.00  0.00    -0.504 OA
ATOM     20  H   UNL     1      -1.535  -3.133  -3.146  1.00  0.00     0.293 HD
ENDBRANCH   5  19
BRANCH   6  21
ATOM     21  O   UNL     1      -0.168  -3.933  -0.984  1.00  0.00    -0.500 OA
ATOM     22  H   UNL     1      -0.144  -3.274  -1.696  1.00  0.00     0.294 HD
ENDBRANCH   6  21
TORSDOF 5
ENDMDL
MODEL 5
REMARK VINA RESULT:    -4.539      3.655      6.533
REMARK INTER + INTRA:          -6.368
REMARK INTER:                  -5.454
REMARK INTRA:                  -0.914
REMARK UNBOUND:                -0.767
REMARK SMILES Cc1ccc(C(=O)c2cc(O)c(O)c([N+](=O)[O-])c2)cc1
REMARK SMILES IDX 8 1 18 2 9 3 14 4 10 5 12 6 6 7 7 8 5 9 4 10 19 11 3 12
REMARK SMILES IDX 20 13 2 14 1 15 15 16 17 17 16 18 11 19 13 21
REMARK H PARENT 11 20 13 22
ROOT
ATOM      1  C   UNL     1      -1.334 -11.178  -2.159  1.00  0.00     0.033 A 
ATOM      2  C   UNL     1      -1.462 -11.557  -3.475  1.00  0.00     0.102 A 
ATOM      3  C   UNL     1      -1.739 -11.971  -1.111  1.00  0.00     0.063 A 
ATOM      4  C   UNL     1      -2.026 -12.801  -3.759  1.00  0.00     0.315 A 
ATOM      5  C   UNL     1      -2.304 -13.215  -1.396  1.00  0.00     0.165 A 
ATOM      6  C   UNL     1      -2.447 -13.630  -2.720  1.00  0.00     0.237 A 
ENDROOT
BRANCH   1   7
ATOM      7  C   UNL     1      -0.730  -9.846  -1.854  1.00  0.00     0.193 C 
ATOM      8  O   UNL     1       0.270  -9.829  -1.120  1.00  0.00    -0.289 OA
BRANCH   7   9
ATOM      9  C   UNL     1      -1.271  -8.605  -2.383  1.00  0.00     0.023 A 
ATOM     10  C   UNL     1      -2.651  -8.400  -2.408  1.00  0.00     0.012 A 
ATOM     11  C   UNL     1      -0.412  -7.619  -2.867  1.00  0.00     0.012 A 
ATOM     12  C   UNL     1      -3.170  -7.209  -2.915  1.00  0.00     0.004 A 
ATOM     13  C   UNL     1      -0.930  -6.427  -3.375  1.00  0.00     0.004 A 
ATOM     14  C   UNL     1      -2.310  -6.222  -3.399  1.00  0.00    -0.051 A 
ATOM     15  C   UNL     1      -2.866  -4.950  -3.943  1.00  0.00     0.044 C 
ENDBRANCH   7   9
ENDBRANCH   1   7
BRANCH   4  16
ATOM     16  N   UNL     1      -2.164 -13.206  -5.115  1.00  0.00     0.066 N 
ATOM     17  O   UNL     1      -2.339 -12.329  -5.995  1.00  0.00    -0.258 OA
ATOM     18  O   UNL     1      -2.105 -14.427  -5.391  1.00  0.00    -0.258 OA
ENDBRANCH   4  16
BRANCH   5  19
ATOM     19  O   UNL     1      -2.711 -14.014  -0.370  1.00  0.00    -0.504 OA
ATOM     20  H   UNL     1      -3.049 -14.853  -0.726  1.00  0.00     0.293 HD
ENDBRANCH   5  19
BRANCH   6  21
ATOM     21  O   UNL     1      -3.000 -14.849  -2.986  1.00  0.00    -0.500 OA
ATOM     22  H   UNL     1      -2.330 -15.435  -3.370  1.00  0.00     0.294 HD
ENDBRANCH   6  21
TORSDOF 5
ENDMDL
MODEL 6
REMARK VINA RESULT:    -4.464      3.899      7.092
REMARK INTER + INTRA:          -6.276
REMARK INTER:                  -5.622
REMARK INTRA:                  -0.654
REMARK UNBOUND:                -0.767
REMARK SMILES Cc1ccc(C(=O)c2cc(O)c(O)c([N+](=O)[O-])c2)cc1
REMARK SMILES IDX 8 1 18 2 9 3 14 4 10 5 12 6 6 7 7 8 5 9 4 10 19 11 3 12
REMARK SMILES IDX 20 13 2 14 1 15 15 16 17 17 16 18 11 19 13 21
REMARK H PARENT 11 20 13 22
ROOT
ATOM      1  C   UNL     1      -2.088 -11.493  -2.562  1.00  0.00     0.033 A 
ATOM      2  C   UNL     1      -2.118 -12.406  -3.590  1.00  0.00     0.102 A 
ATOM      3  C   UNL     1      -2.382 -11.824  -1.260  1.00  0.00     0.063 A 
ATOM      4  C   UNL     1      -2.459 -13.727  -3.299  1.00  0.00     0.315 A 
ATOM      5  C   UNL     1      -2.724 -13.145  -0.969  1.00  0.00     0.165 A 
ATOM      6  C   UNL     1      -2.762 -14.097  -1.989  1.00  0.00     0.237 A 
ENDROOT
BRANCH   1   7
ATOM      7  C   UNL     1      -1.723 -10.078  -2.873  1.00  0.00     0.193 C 
ATOM      8  O   UNL     1      -1.825  -9.711  -4.054  1.00  0.00    -0.289 OA
BRANCH   7   9
ATOM      9  C   UNL     1      -1.264  -9.149  -1.854  1.00  0.00     0.023 A 
ATOM     10  C   UNL     1       0.096  -9.055  -1.556  1.00  0.00     0.012 A 
ATOM     11  C   UNL     1      -2.182  -8.350  -1.173  1.00  0.00     0.012 A 
ATOM     12  C   UNL     1       0.536  -8.164  -0.578  1.00  0.00     0.004 A 
ATOM     13  C   UNL     1      -1.742  -7.458  -0.194  1.00  0.00     0.004 A 
ATOM     14  C   UNL     1      -0.383  -7.365   0.103  1.00  0.00    -0.051 A 
ATOM     15  C   UNL     1       0.088  -6.413   1.149  1.00  0.00     0.044 C 
ENDBRANCH   7   9
ENDBRANCH   1   7
BRANCH   4  16
ATOM     16  N   UNL     1      -2.493 -14.683  -4.351  1.00  0.00     0.066 N 
ATOM     17  O   UNL     1      -2.135 -14.331  -5.501  1.00  0.00    -0.258 OA
ATOM     18  O   UNL     1      -2.878 -15.848  -4.099  1.00  0.00    -0.258 OA
ENDBRANCH   4  16
BRANCH   5  19
ATOM     19  O   UNL     1      -3.017 -13.492   0.315  1.00  0.00    -0.504 OA
ATOM     20  H   UNL     1      -3.932 -13.815   0.364  1.00  0.00     0.293 HD
ENDBRANCH   5  19
BRANCH   6  21
ATOM     21  O   UNL     1      -3.097 -15.386  -1.692  1.00  0.00    -0.500 OA
ATOM     22  H   UNL     1      -3.010 -15.534  -0.737  1.00  0.00     0.294 HD
ENDBRANCH   6  21
TORSDOF 5
ENDMDL
MODEL 7
REMARK VINA RESULT:    -4.405      3.792      7.044
REMARK INTER + INTRA:          -6.203
REMARK INTER:                  -5.239
REMARK INTRA:                  -0.964
REMARK UNBOUND:                -0.767
REMARK SMILES Cc1ccc(C(=O)c2cc(O)c(O)c([N+](=O)[O-])c2)cc1
REMARK SMILES IDX 8 1 18 2 9 3 14 4 10 5 12 6 6 7 7 8 5 9 4 10 19 11 3 12
REMARK SMILES IDX 20 13 2 14 1 15 15 16 17 17 16 18 11 19 13 21
REMARK H PARENT 11 20 13 22
ROOT
ATOM      1  C   UNL     1      -1.419 -11.232  -2.307  1.00  0.00     0.033 A 
ATOM      2  C   UNL     1      -1.930 -12.057  -1.332  1.00  0.00     0.102 A 
ATOM      3  C   UNL     1      -1.406 -11.570  -3.640  1.00  0.00     0.063 A 
ATOM      4  C   UNL     1      -2.459 -13.291  -1.713  1.00  0.00     0.315 A 
ATOM      5  C   UNL     1      -1.935 -12.804  -4.020  1.00  0.00     0.165 A 
ATOM      6  C   UNL     1      -2.462 -13.664  -3.056  1.00  0.00     0.237 A 
ENDROOT
BRANCH   1   7
ATOM      7  C   UNL     1      -0.852  -9.911  -1.900  1.00  0.00     0.193 C 
ATOM      8  O   UNL     1       0.088  -9.920  -1.092  1.00  0.00    -0.289 OA
BRANCH   7   9
ATOM      9  C   UNL     1      -1.363  -8.651  -2.416  1.00  0.00     0.023 A 
ATOM     10  C   UNL     1      -2.738  -8.420  -2.456  1.00  0.00     0.012 A 
ATOM     11  C   UNL     1      -0.478  -7.674  -2.871  1.00  0.00     0.012 A 
ATOM     12  C   UNL     1      -3.228  -7.211  -2.950  1.00  0.00     0.004 A 
ATOM     13  C   UNL     1      -0.968  -6.464  -3.366  1.00  0.00     0.004 A 
ATOM     14  C   UNL     1      -2.343  -6.233  -3.405  1.00  0.00    -0.051 A 
ATOM     15  C   UNL     1      -2.867  -4.942  -3.935  1.00  0.00     0.044 C 
ENDBRANCH   7   9
ENDBRANCH   1   7
BRANCH   4  16
ATOM     16  N   UNL     1      -2.991 -14.154  -0.716  1.00  0.00     0.066 N 
ATOM     17  O   UNL     1      -2.877 -15.395  -0.865  1.00  0.00    -0.258 OA
ATOM     18  O   UNL     1      -3.558 -13.651   0.282  1.00  0.00    -0.258 OA
ENDBRANCH   4  16
BRANCH   5  19
ATOM     19  O   UNL     1      -1.931 -13.156  -5.337  1.00  0.00    -0.504 OA
ATOM     20  H   UNL     1      -2.714 -13.698  -5.530  1.00  0.00     0.293 HD
ENDBRANCH   5  19
BRANCH   6  21
ATOM     21  O   UNL     1      -2.977 -14.868  -3.440  1.00  0.00    -0.500 OA
ATOM     22  H   UNL     1      -3.714 -14.727  -4.054  1.00  0.00     0.294 HD
ENDBRANCH   6  21
TORSDOF 5
ENDMDL
MODEL 8
REMARK VINA RESULT:    -4.379      1.956      2.633
REMARK INTER + INTRA:          -6.171
REMARK INTER:                  -5.476
REMARK INTRA:                  -0.694
REMARK UNBOUND:                -0.767
REMARK SMILES Cc1ccc(C(=O)c2cc(O)c(O)c([N+](=O)[O-])c2)cc1
REMARK SMILES IDX 8 1 18 2 9 3 14 4 10 5 12 6 6 7 7 8 5 9 4 10 19 11 3 12
REMARK SMILES IDX 20 13 2 14 1 15 15 16 17 17 16 18 11 19 13 21
REMARK H PARENT 11 20 13 22
ROOT
ATOM      1  C   UNL     1      -1.245  -8.260  -2.686  1.00  0.00     0.033 A 
ATOM      2  C   UNL     1      -1.737  -7.158  -3.347  1.00  0.00     0.102 A 
ATOM      3  C   UNL     1      -0.615  -8.179  -1.467  1.00  0.00     0.063 A 
ATOM      4  C   UNL     1      -1.591  -5.904  -2.754  1.00  0.00     0.315 A 
ATOM      5  C   UNL     1      -0.467  -6.925  -0.874  1.00  0.00     0.165 A 
ATOM      6  C   UNL     1      -0.956  -5.787  -1.518  1.00  0.00     0.237 A 
ENDROOT
BRANCH   1   7
ATOM      7  C   UNL     1      -1.402  -9.603  -3.321  1.00  0.00     0.193 C 
ATOM      8  O   UNL     1      -1.128  -9.698  -4.526  1.00  0.00    -0.289 OA
BRANCH   7   9
ATOM      9  C   UNL     1      -1.856 -10.768  -2.578  1.00  0.00     0.023 A 
ATOM     10  C   UNL     1      -3.203 -11.129  -2.601  1.00  0.00     0.012 A 
ATOM     11  C   UNL     1      -0.944 -11.526  -1.844  1.00  0.00     0.012 A 
ATOM     12  C   UNL     1      -3.638 -12.246  -1.889  1.00  0.00     0.004 A 
ATOM     13  C   UNL     1      -1.379 -12.645  -1.132  1.00  0.00     0.004 A 
ATOM     14  C   UNL     1      -2.726 -13.005  -1.154  1.00  0.00    -0.051 A 
ATOM     15  C   UNL     1      -3.192 -14.199  -0.393  1.00  0.00     0.044 C 
ENDBRANCH   7   9
ENDBRANCH   1   7
BRANCH   4  16
ATOM     16  N   UNL     1      -2.095  -4.756  -3.425  1.00  0.00     0.066 N 
ATOM     17  O   UNL     1      -3.318  -4.704  -3.700  1.00  0.00    -0.258 OA
ATOM     18  O   UNL     1      -1.303  -3.831  -3.720  1.00  0.00    -0.258 OA
ENDBRANCH   4  16
BRANCH   5  19
ATOM     19  O   UNL     1       0.155  -6.825   0.334  1.00  0.00    -0.504 OA
ATOM     20  H   UNL     1       0.955  -6.281   0.244  1.00  0.00     0.293 HD
ENDBRANCH   5  19
BRANCH   6  21
ATOM     21  O   UNL     1      -0.806  -4.566  -0.927  1.00  0.00    -0.500 OA
ATOM     22  H   UNL     1      -1.657  -4.101  -0.919  1.00  0.00     0.294 HD
ENDBRANCH   6  21
TORSDOF 5
ENDMDL
MODEL 9
REMARK VINA RESULT:    -4.375      1.248      2.919
REMARK INTER + INTRA:          -6.166
REMARK INTER:                  -5.442
REMARK INTRA:                  -0.724
REMARK UNBOUND:                -0.767
REMARK SMILES Cc1ccc(C(=O)c2cc(O)c(O)c([N+](=O)[O-])c2)cc1
REMARK SMILES IDX 8 1 18 2 9 3 14 4 10 5 12 6 6 7 7 8 5 9 4 10 19 11 3 12
REMARK SMILES IDX 20 13 2 14 1 15 15 16 17 17 16 18 11 19 13 21
REMARK H PARENT 11 20 13 22
ROOT
ATOM      1  C   UNL     1      -1.987  -8.402  -1.327  1.00  0.00     0.033 A 
ATOM      2  C   UNL     1      -1.251  -7.921  -0.269  1.00  0.00     0.102 A 
ATOM      3  C   UNL     1      -2.453  -7.598  -2.340  1.00  0.00     0.063 A 
ATOM      4  C   UNL     1      -0.965  -6.556  -0.223  1.00  0.00     0.315 A 
ATOM      5  C   UNL     1      -2.167  -6.234  -2.293  1.00  0.00     0.165 A 
ATOM      6  C   UNL     1      -1.422  -5.713  -1.235  1.00  0.00     0.237 A 
ENDROOT
BRANCH   1   7
ATOM      7  C   UNL     1      -2.294  -9.864  -1.377  1.00  0.00     0.193 C 
ATOM      8  O   UNL     1      -2.695 -10.397  -0.331  1.00  0.00    -0.289 OA
BRANCH   7   9
ATOM      9  C   UNL     1      -2.139 -10.652  -2.589  1.00  0.00     0.023 A 
ATOM     10  C   UNL     1      -3.189 -10.741  -3.503  1.00  0.00     0.012 A 
ATOM     11  C   UNL     1      -0.940 -11.320  -2.838  1.00  0.00     0.012 A 
ATOM     12  C   UNL     1      -3.039 -11.497  -4.665  1.00  0.00     0.004 A 
ATOM     13  C   UNL     1      -0.790 -12.077  -4.000  1.00  0.00     0.004 A 
ATOM     14  C   UNL     1      -1.840 -12.165  -4.915  1.00  0.00    -0.051 A 
ATOM     15  C   UNL     1      -1.681 -12.974  -6.156  1.00  0.00     0.044 C 
ENDBRANCH   7   9
ENDBRANCH   1   7
BRANCH   4  16
ATOM     16  N   UNL     1      -0.205  -6.044   0.864  1.00  0.00     0.066 N 
ATOM     17  O   UNL     1      -0.722  -5.177   1.610  1.00  0.00    -0.258 OA
ATOM     18  O   UNL     1       0.958  -6.473   1.046  1.00  0.00    -0.258 OA
ENDBRANCH   4  16
BRANCH   5  19
ATOM     19  O   UNL     1      -2.620  -5.421  -3.289  1.00  0.00    -0.504 OA
ATOM     20  H   UNL     1      -3.373  -5.842  -3.735  1.00  0.00     0.293 HD
ENDBRANCH   5  19
BRANCH   6  21
ATOM     21  O   UNL     1      -1.148  -4.376  -1.200  1.00  0.00    -0.500 OA
ATOM     22  H   UNL     1      -1.909  -3.896  -0.838  1.00  0.00     0.294 HD
ENDBRANCH   6  21
TORSDOF 5
ENDMDL
