MODEL 1
REMARK VINA RESULT:    -6.963      0.000      0.000
REMARK INTER + INTRA:          -8.760
REMARK INTER:                  -8.185
REMARK INTRA:                  -0.575
REMARK UNBOUND:                -0.575
REMARK SMILES O=C(O)c1cc(-c2ccc(F)cc2F)ccc1O
REMARK SMILES IDX 6 1 5 2 15 3 4 4 17 5 16 6 7 7 13 8 12 9 8 10 10 11 9 12
REMARK SMILES IDX 14 13 11 14 2 15 1 16 3 17 18 19
REMARK H PARENT 3 18 18 20
ROOT
ATOM      1  C   UNL     1       2.840   1.638   7.296  1.00  0.00    -0.014 A 
ATOM      2  C   UNL     1       1.727   2.150   6.630  1.00  0.00     0.028 A 
ATOM      3  C   UNL     1       3.676   0.724   6.655  1.00  0.00     0.013 A 
ATOM      4  C   UNL     1       1.449   1.749   5.323  1.00  0.00     0.102 A 
ATOM      5  C   UNL     1       2.285   0.835   4.682  1.00  0.00     0.130 A 
ATOM      6  C   UNL     1       3.399   0.322   5.348  1.00  0.00     0.048 A 
ENDROOT
BRANCH   1   7
ATOM      7  C   UNL     1       3.127   2.053   8.652  1.00  0.00     0.018 A 
ATOM      8  C   UNL     1       3.074   3.403   8.997  1.00  0.00     0.133 A 
ATOM      9  C   UNL     1       3.352   3.799  10.306  1.00  0.00     0.079 A 
ATOM     10  C   UNL     1       3.458   1.099   9.614  1.00  0.00     0.015 A 
ATOM     11  C   UNL     1       3.683   2.845  11.268  1.00  0.00     0.126 A 
ATOM     12  C   UNL     1       3.735   1.495  10.922  1.00  0.00     0.040 A 
ATOM     13  F   UNL     1       2.761   4.333   8.084  1.00  0.00    -0.206 F 
ATOM     14  F   UNL     1       3.951   3.224  12.524  1.00  0.00    -0.207 F 
ENDBRANCH   1   7
BRANCH   4  15
ATOM     15  C   UNL     1       0.282   2.296   4.645  1.00  0.00     0.339 C 
ATOM     16  O   UNL     1      -0.626   1.632   4.139  1.00  0.00    -0.246 OA
BRANCH  15  17
ATOM     17  O   UNL     1       0.285   3.656   4.623  1.00  0.00    -0.478 OA
ATOM     18  H   UNL     1       0.935   4.009   3.979  1.00  0.00     0.297 HD
ENDBRANCH  15  17
ENDBRANCH   4  15
BRANCH   5  19
ATOM     19  O   UNL     1       2.032   0.430   3.405  1.00  0.00    -0.507 OA
ATOM     20  H   UNL     1       1.075   0.286   3.302  1.00  0.00     0.293 HD
ENDBRANCH   5  19
TORSDOF 4
ENDMDL
MODEL 2
REMARK VINA RESULT:    -6.956      1.124      1.606
REMARK INTER + INTRA:          -8.751
REMARK INTER:                  -8.172
REMARK INTRA:                  -0.579
REMARK UNBOUND:                -0.575
REMARK SMILES O=C(O)c1cc(-c2ccc(F)cc2F)ccc1O
REMARK SMILES IDX 6 1 5 2 15 3 4 4 17 5 16 6 7 7 13 8 12 9 8 10 10 11 9 12
REMARK SMILES IDX 14 13 11 14 2 15 1 16 3 17 18 19
REMARK H PARENT 3 18 18 20
ROOT
ATOM      1  C   UNL     1       2.834   1.599   7.296  1.00  0.00    -0.014 A 
ATOM      2  C   UNL     1       1.725   2.122   6.632  1.00  0.00     0.028 A 
ATOM      3  C   UNL     1       3.665   0.683   6.651  1.00  0.00     0.013 A 
ATOM      4  C   UNL     1       1.446   1.730   5.323  1.00  0.00     0.102 A 
ATOM      5  C   UNL     1       2.277   0.814   4.677  1.00  0.00     0.130 A 
ATOM      6  C   UNL     1       3.387   0.291   5.342  1.00  0.00     0.048 A 
ENDROOT
BRANCH   1   7
ATOM      7  C   UNL     1       3.123   2.004   8.655  1.00  0.00     0.018 A 
ATOM      8  C   UNL     1       3.422   1.045   9.623  1.00  0.00     0.133 A 
ATOM      9  C   UNL     1       3.700   1.441  10.932  1.00  0.00     0.079 A 
ATOM     10  C   UNL     1       3.103   3.357   8.995  1.00  0.00     0.015 A 
ATOM     11  C   UNL     1       3.679   2.793  11.272  1.00  0.00     0.126 A 
ATOM     12  C   UNL     1       3.381   3.751  10.303  1.00  0.00     0.040 A 
ATOM     13  F   UNL     1       3.443  -0.259   9.314  1.00  0.00    -0.206 F 
ATOM     14  F   UNL     1       3.945   3.173  12.528  1.00  0.00    -0.207 F 
ENDBRANCH   1   7
BRANCH   4  15
ATOM     15  C   UNL     1       0.283   2.288   4.647  1.00  0.00     0.339 C 
ATOM     16  O   UNL     1      -0.629   1.633   4.137  1.00  0.00    -0.246 OA
BRANCH  15  17
ATOM     17  O   UNL     1       0.297   3.649   4.630  1.00  0.00    -0.478 OA
ATOM     18  H   UNL     1      -0.128   4.028   5.428  1.00  0.00     0.297 HD
ENDBRANCH  15  17
ENDBRANCH   4  15
BRANCH   5  19
ATOM     19  O   UNL     1       2.023   0.419   3.398  1.00  0.00    -0.507 OA
ATOM     20  H   UNL     1       2.812  -0.023   3.040  1.00  0.00     0.293 HD
ENDBRANCH   5  19
TORSDOF 4
ENDMDL
MODEL 3
REMARK VINA RESULT:    -6.941      1.229      2.712
REMARK INTER + INTRA:          -8.733
REMARK INTER:                  -8.163
REMARK INTRA:                  -0.570
REMARK UNBOUND:                -0.575
REMARK SMILES O=C(O)c1cc(-c2ccc(F)cc2F)ccc1O
REMARK SMILES IDX 6 1 5 2 15 3 4 4 17 5 16 6 7 7 13 8 12 9 8 10 10 11 9 12
REMARK SMILES IDX 14 13 11 14 2 15 1 16 3 17 18 19
REMARK H PARENT 3 18 18 20
ROOT
ATOM      1  C   UNL     1       2.791   1.628   7.298  1.00  0.00    -0.014 A 
ATOM      2  C   UNL     1       3.640   0.694   6.704  1.00  0.00     0.028 A 
ATOM      3  C   UNL     1       1.698   2.127   6.589  1.00  0.00     0.013 A 
ATOM      4  C   UNL     1       3.396   0.260   5.400  1.00  0.00     0.102 A 
ATOM      5  C   UNL     1       2.304   0.760   4.692  1.00  0.00     0.130 A 
ATOM      6  C   UNL     1       1.454   1.694   5.286  1.00  0.00     0.048 A 
ENDROOT
BRANCH   1   7
ATOM      7  C   UNL     1       3.044   2.080   8.649  1.00  0.00     0.018 A 
ATOM      8  C   UNL     1       2.992   3.441   8.954  1.00  0.00     0.133 A 
ATOM      9  C   UNL     1       3.237   3.872  10.258  1.00  0.00     0.079 A 
ATOM     10  C   UNL     1       3.338   1.152   9.648  1.00  0.00     0.015 A 
ATOM     11  C   UNL     1       3.532   2.944  11.256  1.00  0.00     0.126 A 
ATOM     12  C   UNL     1       3.582   1.584  10.951  1.00  0.00     0.040 A 
ATOM     13  F   UNL     1       2.713   4.346   8.005  1.00  0.00    -0.206 F 
ATOM     14  F   UNL     1       3.767   3.358  12.508  1.00  0.00    -0.207 F 
ENDBRANCH   1   7
BRANCH   4  15
ATOM     15  C   UNL     1       4.294  -0.716   4.798  1.00  0.00     0.339 C 
ATOM     16  O   UNL     1       4.892  -0.571   3.729  1.00  0.00    -0.246 OA
BRANCH  15  17
ATOM     17  O   UNL     1       4.418  -1.841   5.552  1.00  0.00    -0.478 OA
ATOM     18  H   UNL     1       3.548  -2.256   5.734  1.00  0.00     0.297 HD
ENDBRANCH  15  17
ENDBRANCH   4  15
BRANCH   5  19
ATOM     19  O   UNL     1       2.048   0.348   3.418  1.00  0.00    -0.507 OA
ATOM     20  H   UNL     1       2.869   0.396   2.898  1.00  0.00     0.293 HD
ENDBRANCH   5  19
TORSDOF 4
ENDMDL
MODEL 4
REMARK VINA RESULT:    -5.408      1.065      1.353
REMARK INTER + INTRA:          -6.931
REMARK INTER:                  -6.287
REMARK INTRA:                  -0.644
REMARK UNBOUND:                -0.575
REMARK SMILES O=C(O)c1cc(-c2ccc(F)cc2F)ccc1O
REMARK SMILES IDX 6 1 5 2 15 3 4 4 17 5 16 6 7 7 13 8 12 9 8 10 10 11 9 12
REMARK SMILES IDX 14 13 11 14 2 15 1 16 3 17 18 19
REMARK H PARENT 3 18 18 20
ROOT
ATOM      1  C   UNL     1       2.913   1.680   7.670  1.00  0.00    -0.014 A 
ATOM      2  C   UNL     1       1.872   2.299   6.978  1.00  0.00     0.028 A 
ATOM      3  C   UNL     1       3.629   0.643   7.071  1.00  0.00     0.013 A 
ATOM      4  C   UNL     1       1.547   1.881   5.687  1.00  0.00     0.102 A 
ATOM      5  C   UNL     1       2.263   0.845   5.089  1.00  0.00     0.130 A 
ATOM      6  C   UNL     1       3.305   0.225   5.781  1.00  0.00     0.048 A 
ENDROOT
BRANCH   1   7
ATOM      7  C   UNL     1       3.250   2.112   9.009  1.00  0.00     0.018 A 
ATOM      8  C   UNL     1       2.241   2.379   9.934  1.00  0.00     0.133 A 
ATOM      9  C   UNL     1       2.570   2.795  11.224  1.00  0.00     0.079 A 
ATOM     10  C   UNL     1       4.588   2.259   9.375  1.00  0.00     0.015 A 
ATOM     11  C   UNL     1       3.908   2.944  11.589  1.00  0.00     0.126 A 
ATOM     12  C   UNL     1       4.917   2.675  10.664  1.00  0.00     0.040 A 
ATOM     13  F   UNL     1       0.950   2.245   9.598  1.00  0.00    -0.206 F 
ATOM     14  F   UNL     1       4.225   3.343  12.828  1.00  0.00    -0.207 F 
ENDBRANCH   1   7
BRANCH   4  15
ATOM     15  C   UNL     1       0.457   2.540   4.982  1.00  0.00     0.339 C 
ATOM     16  O   UNL     1       0.279   3.759   4.923  1.00  0.00    -0.246 OA
BRANCH  15  17
ATOM     17  O   UNL     1      -0.376   1.654   4.371  1.00  0.00    -0.478 OA
ATOM     18  H   UNL     1      -1.120   2.105   3.919  1.00  0.00     0.297 HD
ENDBRANCH  15  17
ENDBRANCH   4  15
BRANCH   5  19
ATOM     19  O   UNL     1       1.961   0.422   3.828  1.00  0.00    -0.507 OA
ATOM     20  H   UNL     1       1.085   0.765   3.580  1.00  0.00     0.293 HD
ENDBRANCH   5  19
TORSDOF 4
ENDMDL
MODEL 5
REMARK VINA RESULT:    -5.264      4.066      6.288
REMARK INTER + INTRA:          -6.763
REMARK INTER:                  -5.679
REMARK INTRA:                  -1.084
REMARK UNBOUND:                -0.575
REMARK SMILES O=C(O)c1cc(-c2ccc(F)cc2F)ccc1O
REMARK SMILES IDX 6 1 5 2 15 3 4 4 17 5 16 6 7 7 13 8 12 9 8 10 10 11 9 12
REMARK SMILES IDX 14 13 11 14 2 15 1 16 3 17 18 19
REMARK H PARENT 3 18 18 20
ROOT
ATOM      1  C   UNL     1       3.197   2.527   9.692  1.00  0.00    -0.014 A 
ATOM      2  C   UNL     1       2.200   2.775  10.635  1.00  0.00     0.028 A 
ATOM      3  C   UNL     1       4.540   2.619  10.056  1.00  0.00     0.013 A 
ATOM      4  C   UNL     1       2.547   3.114  11.944  1.00  0.00     0.102 A 
ATOM      5  C   UNL     1       3.890   3.206  12.307  1.00  0.00     0.130 A 
ATOM      6  C   UNL     1       4.887   2.958  11.363  1.00  0.00     0.048 A 
ENDROOT
BRANCH   1   7
ATOM      7  C   UNL     1       2.838   2.176   8.334  1.00  0.00     0.018 A 
ATOM      8  C   UNL     1       2.614   3.177   7.388  1.00  0.00     0.133 A 
ATOM      9  C   UNL     1       2.268   2.835   6.081  1.00  0.00     0.079 A 
ATOM     10  C   UNL     1       2.718   0.835   7.973  1.00  0.00     0.015 A 
ATOM     11  C   UNL     1       2.147   1.493   5.720  1.00  0.00     0.126 A 
ATOM     12  C   UNL     1       2.373   0.493   6.666  1.00  0.00     0.040 A 
ATOM     13  F   UNL     1       2.722   4.471   7.720  1.00  0.00    -0.206 F 
ATOM     14  F   UNL     1       1.815   1.164   4.465  1.00  0.00    -0.207 F 
ENDBRANCH   1   7
BRANCH   4  15
ATOM     15  C   UNL     1       1.491   3.369  12.914  1.00  0.00     0.339 C 
ATOM     16  O   UNL     1       1.666   3.629  14.107  1.00  0.00    -0.246 OA
BRANCH  15  17
ATOM     17  O   UNL     1       0.250   3.291  12.362  1.00  0.00    -0.478 OA
ATOM     18  H   UNL     1      -0.362   3.955  12.744  1.00  0.00     0.297 HD
ENDBRANCH  15  17
ENDBRANCH   4  15
BRANCH   5  19
ATOM     19  O   UNL     1       4.250   3.535  13.580  1.00  0.00    -0.507 OA
ATOM     20  H   UNL     1       5.053   3.042  13.821  1.00  0.00     0.293 HD
ENDBRANCH   5  19
TORSDOF 4
ENDMDL
MODEL 6
REMARK VINA RESULT:    -5.241      4.360      6.663
REMARK INTER + INTRA:          -6.735
REMARK INTER:                  -5.665
REMARK INTRA:                  -1.070
REMARK UNBOUND:                -0.575
REMARK SMILES O=C(O)c1cc(-c2ccc(F)cc2F)ccc1O
REMARK SMILES IDX 6 1 5 2 15 3 4 4 17 5 16 6 7 7 13 8 12 9 8 10 10 11 9 12
REMARK SMILES IDX 14 13 11 14 2 15 1 16 3 17 18 19
REMARK H PARENT 3 18 18 20
ROOT
ATOM      1  C   UNL     1       3.251   2.484   9.714  1.00  0.00    -0.014 A 
ATOM      2  C   UNL     1       4.586   2.549  10.111  1.00  0.00     0.028 A 
ATOM      3  C   UNL     1       2.237   2.786  10.622  1.00  0.00     0.013 A 
ATOM      4  C   UNL     1       4.907   2.915  11.419  1.00  0.00     0.102 A 
ATOM      5  C   UNL     1       3.893   3.217  12.328  1.00  0.00     0.130 A 
ATOM      6  C   UNL     1       2.557   3.152  11.929  1.00  0.00     0.048 A 
ENDROOT
BRANCH   1   7
ATOM      7  C   UNL     1       2.917   2.103   8.358  1.00  0.00     0.018 A 
ATOM      8  C   UNL     1       2.666   3.083   7.397  1.00  0.00     0.133 A 
ATOM      9  C   UNL     1       2.344   2.711   6.091  1.00  0.00     0.079 A 
ATOM     10  C   UNL     1       2.846   0.753   8.014  1.00  0.00     0.015 A 
ATOM     11  C   UNL     1       2.272   1.361   5.747  1.00  0.00     0.126 A 
ATOM     12  C   UNL     1       2.524   0.383   6.709  1.00  0.00     0.040 A 
ATOM     13  F   UNL     1       2.727   4.384   7.712  1.00  0.00    -0.206 F 
ATOM     14  F   UNL     1       1.963   1.003   4.495  1.00  0.00    -0.207 F 
ENDBRANCH   1   7
BRANCH   4  15
ATOM     15  C   UNL     1       6.308   2.977  11.814  1.00  0.00     0.339 C 
ATOM     16  O   UNL     1       6.719   3.041  12.975  1.00  0.00    -0.246 OA
BRANCH  15  17
ATOM     17  O   UNL     1       7.150   2.955  10.746  1.00  0.00    -0.478 OA
ATOM     18  H   UNL     1       7.777   2.203  10.791  1.00  0.00     0.297 HD
ENDBRANCH  15  17
ENDBRANCH   4  15
BRANCH   5  19
ATOM     19  O   UNL     1       4.186   3.578  13.609  1.00  0.00    -0.507 OA
ATOM     20  H   UNL     1       3.638   3.055  14.219  1.00  0.00     0.293 HD
ENDBRANCH   5  19
TORSDOF 4
ENDMDL
MODEL 7
REMARK VINA RESULT:    -4.570      1.437      2.738
REMARK INTER + INTRA:          -5.946
REMARK INTER:                  -5.110
REMARK INTRA:                  -0.836
REMARK UNBOUND:                -0.575
REMARK SMILES O=C(O)c1cc(-c2ccc(F)cc2F)ccc1O
REMARK SMILES IDX 6 1 5 2 15 3 4 4 17 5 16 6 7 7 13 8 12 9 8 10 10 11 9 12
REMARK SMILES IDX 14 13 11 14 2 15 1 16 3 17 18 19
REMARK H PARENT 3 18 18 20
ROOT
ATOM      1  C   UNL     1       2.200   1.989   7.606  1.00  0.00    -0.014 A 
ATOM      2  C   UNL     1       2.767   1.278   6.549  1.00  0.00     0.028 A 
ATOM      3  C   UNL     1       0.906   2.495   7.492  1.00  0.00     0.013 A 
ATOM      4  C   UNL     1       2.039   1.072   5.377  1.00  0.00     0.102 A 
ATOM      5  C   UNL     1       0.744   1.579   5.262  1.00  0.00     0.130 A 
ATOM      6  C   UNL     1       0.178   2.290   6.320  1.00  0.00     0.048 A 
ENDROOT
BRANCH   1   7
ATOM      7  C   UNL     1       2.955   2.203   8.822  1.00  0.00     0.018 A 
ATOM      8  C   UNL     1       3.472   1.115   9.527  1.00  0.00     0.133 A 
ATOM      9  C   UNL     1       4.199   1.326  10.699  1.00  0.00     0.079 A 
ATOM     10  C   UNL     1       3.167   3.500   9.288  1.00  0.00     0.015 A 
ATOM     11  C   UNL     1       4.409   2.623  11.165  1.00  0.00     0.126 A 
ATOM     12  C   UNL     1       3.894   3.710  10.459  1.00  0.00     0.040 A 
ATOM     13  F   UNL     1       3.275  -0.138   9.094  1.00  0.00    -0.206 F 
ATOM     14  F   UNL     1       5.107   2.827  12.290  1.00  0.00    -0.207 F 
ENDBRANCH   1   7
BRANCH   4  15
ATOM     15  C   UNL     1       2.648   0.327   4.284  1.00  0.00     0.339 C 
ATOM     16  O   UNL     1       2.252   0.320   3.116  1.00  0.00    -0.246 OA
BRANCH  15  17
ATOM     17  O   UNL     1       3.736  -0.386   4.686  1.00  0.00    -0.478 OA
ATOM     18  H   UNL     1       4.408   0.185   5.113  1.00  0.00     0.297 HD
ENDBRANCH  15  17
ENDBRANCH   4  15
BRANCH   5  19
ATOM     19  O   UNL     1       0.016   1.389   4.126  1.00  0.00    -0.507 OA
ATOM     20  H   UNL     1      -0.792   0.893   4.345  1.00  0.00     0.293 HD
ENDBRANCH   5  19
TORSDOF 4
ENDMDL
