MODEL 1
REMARK VINA RESULT:    -5.192      0.000      0.000
REMARK INTER + INTRA:          -7.181
REMARK INTER:                  -6.406
REMARK INTRA:                  -0.775
REMARK UNBOUND:                -0.775
REMARK SMILES Cc1ccc(C(=O)c2cc(O)c(O)c([N+](=O)[O-])c2)cc1
REMARK SMILES IDX 8 1 18 2 9 3 14 4 10 5 12 6 6 7 7 8 5 9 4 10 19 11 3 12
REMARK SMILES IDX 20 13 2 14 1 15 15 16 17 17 16 18 11 19 13 21
REMARK H PARENT 11 20 13 22
ROOT
ATOM      1  C   UNL     1       3.642   1.691   6.913  1.00  0.00     0.033 A 
ATOM      2  C   UNL     1       2.399   2.182   6.588  1.00  0.00     0.102 A 
ATOM      3  C   UNL     1       4.320   0.794   6.123  1.00  0.00     0.063 A 
ATOM      4  C   UNL     1       1.800   1.750   5.405  1.00  0.00     0.315 A 
ATOM      5  C   UNL     1       3.721   0.361   4.939  1.00  0.00     0.165 A 
ATOM      6  C   UNL     1       2.460   0.840   4.580  1.00  0.00     0.237 A 
ENDROOT
BRANCH   1   7
ATOM      7  C   UNL     1       4.284   2.154   8.180  1.00  0.00     0.193 C 
ATOM      8  O   UNL     1       5.520   2.257   8.187  1.00  0.00    -0.289 OA
BRANCH   7   9
ATOM      9  C   UNL     1       3.515   2.476   9.371  1.00  0.00     0.023 A 
ATOM     10  C   UNL     1       3.320   1.510  10.359  1.00  0.00     0.012 A 
ATOM     11  C   UNL     1       2.972   3.751   9.527  1.00  0.00     0.012 A 
ATOM     12  C   UNL     1       2.583   1.820  11.501  1.00  0.00     0.004 A 
ATOM     13  C   UNL     1       2.234   4.062  10.670  1.00  0.00     0.004 A 
ATOM     14  C   UNL     1       2.039   3.095  11.657  1.00  0.00    -0.051 A 
ATOM     15  C   UNL     1       1.250   3.425  12.878  1.00  0.00     0.044 C 
ENDBRANCH   7   9
ENDBRANCH   1   7
BRANCH   4  16
ATOM     16  N   UNL     1       0.514   2.249   5.056  1.00  0.00     0.066 N 
ATOM     17  O   UNL     1       0.193   3.405   5.422  1.00  0.00    -0.258 OA
ATOM     18  O   UNL     1      -0.259   1.519   4.393  1.00  0.00    -0.258 OA
ENDBRANCH   4  16
BRANCH   5  19
ATOM     19  O   UNL     1       4.378  -0.528   4.143  1.00  0.00    -0.504 OA
ATOM     20  H   UNL     1       3.832  -0.735   3.367  1.00  0.00     0.293 HD
ENDBRANCH   5  19
BRANCH   6  21
ATOM     21  O   UNL     1       1.884   0.410   3.420  1.00  0.00    -0.500 OA
ATOM     22  H   UNL     1       1.847   1.141   2.784  1.00  0.00     0.294 HD
ENDBRANCH   6  21
TORSDOF 5
ENDMDL
MODEL 2
REMARK VINA RESULT:    -5.125      2.044      3.558
REMARK INTER + INTRA:          -7.098
REMARK INTER:                  -6.311
REMARK INTRA:                  -0.787
REMARK UNBOUND:                -0.775
REMARK SMILES Cc1ccc(C(=O)c2cc(O)c(O)c([N+](=O)[O-])c2)cc1
REMARK SMILES IDX 8 1 18 2 9 3 14 4 10 5 12 6 6 7 7 8 5 9 4 10 19 11 3 12
REMARK SMILES IDX 20 13 2 14 1 15 15 16 17 17 16 18 11 19 13 21
REMARK H PARENT 11 20 13 22
ROOT
ATOM      1  C   UNL     1       1.868   1.412   7.382  1.00  0.00     0.033 A 
ATOM      2  C   UNL     1       2.918   0.621   6.974  1.00  0.00     0.102 A 
ATOM      3  C   UNL     1       0.891   1.855   6.523  1.00  0.00     0.063 A 
ATOM      4  C   UNL     1       2.993   0.253   5.631  1.00  0.00     0.315 A 
ATOM      5  C   UNL     1       0.966   1.487   5.180  1.00  0.00     0.165 A 
ATOM      6  C   UNL     1       2.017   0.686   4.733  1.00  0.00     0.237 A 
ENDROOT
BRANCH   1   7
ATOM      7  C   UNL     1       1.788   1.806   8.820  1.00  0.00     0.193 C 
ATOM      8  O   UNL     1       0.660   1.858   9.334  1.00  0.00    -0.289 OA
BRANCH   7   9
ATOM      9  C   UNL     1       2.968   2.122   9.609  1.00  0.00     0.023 A 
ATOM     10  C   UNL     1       3.399   3.444   9.722  1.00  0.00     0.012 A 
ATOM     11  C   UNL     1       3.669   1.103  10.254  1.00  0.00     0.012 A 
ATOM     12  C   UNL     1       4.531   3.746  10.479  1.00  0.00     0.004 A 
ATOM     13  C   UNL     1       4.801   1.404  11.012  1.00  0.00     0.004 A 
ATOM     14  C   UNL     1       5.232   2.726  11.124  1.00  0.00    -0.051 A 
ATOM     15  C   UNL     1       6.443   3.050  11.932  1.00  0.00     0.044 C 
ENDBRANCH   7   9
ENDBRANCH   1   7
BRANCH   4  16
ATOM     16  N   UNL     1       4.072  -0.564   5.194  1.00  0.00     0.066 N 
ATOM     17  O   UNL     1       4.447  -1.513   5.924  1.00  0.00    -0.258 OA
ATOM     18  O   UNL     1       4.615  -0.312   4.094  1.00  0.00    -0.258 OA
ENDBRANCH   4  16
BRANCH   5  19
ATOM     19  O   UNL     1       0.005   1.917   4.314  1.00  0.00    -0.504 OA
ATOM     20  H   UNL     1       0.329   1.836   3.402  1.00  0.00     0.293 HD
ENDBRANCH   5  19
BRANCH   6  21
ATOM     21  O   UNL     1       2.079   0.332   3.417  1.00  0.00    -0.500 OA
ATOM     22  H   UNL     1       2.491   1.046   2.906  1.00  0.00     0.294 HD
ENDBRANCH   6  21
TORSDOF 5
ENDMDL
MODEL 3
REMARK VINA RESULT:    -4.211      1.261      2.716
REMARK INTER + INTRA:          -5.971
REMARK INTER:                  -5.253
REMARK INTRA:                  -0.718
REMARK UNBOUND:                -0.775
REMARK SMILES Cc1ccc(C(=O)c2cc(O)c(O)c([N+](=O)[O-])c2)cc1
REMARK SMILES IDX 8 1 18 2 9 3 14 4 10 5 12 6 6 7 7 8 5 9 4 10 19 11 3 12
REMARK SMILES IDX 20 13 2 14 1 15 15 16 17 17 16 18 11 19 13 21
REMARK H PARENT 11 20 13 22
ROOT
ATOM      1  C   UNL     1       3.644   1.830   7.304  1.00  0.00     0.033 A 
ATOM      2  C   UNL     1       4.268   0.787   6.660  1.00  0.00     0.102 A 
ATOM      3  C   UNL     1       2.517   2.443   6.811  1.00  0.00     0.063 A 
ATOM      4  C   UNL     1       3.733   0.330   5.456  1.00  0.00     0.315 A 
ATOM      5  C   UNL     1       1.982   1.988   5.605  1.00  0.00     0.165 A 
ATOM      6  C   UNL     1       2.590   0.930   4.928  1.00  0.00     0.237 A 
ENDROOT
BRANCH   1   7
ATOM      7  C   UNL     1       4.217   2.319   8.594  1.00  0.00     0.193 C 
ATOM      8  O   UNL     1       5.444   2.488   8.644  1.00  0.00    -0.289 OA
BRANCH   7   9
ATOM      9  C   UNL     1       3.391   2.594   9.759  1.00  0.00     0.023 A 
ATOM     10  C   UNL     1       3.161   1.594  10.703  1.00  0.00     0.012 A 
ATOM     11  C   UNL     1       2.829   3.859   9.933  1.00  0.00     0.012 A 
ATOM     12  C   UNL     1       2.369   1.858  11.820  1.00  0.00     0.004 A 
ATOM     13  C   UNL     1       2.037   4.124  11.050  1.00  0.00     0.004 A 
ATOM     14  C   UNL     1       1.807   3.124  11.995  1.00  0.00    -0.051 A 
ATOM     15  C   UNL     1       0.960   3.405  13.188  1.00  0.00     0.044 C 
ENDBRANCH   7   9
ENDBRANCH   1   7
BRANCH   4  16
ATOM     16  N   UNL     1       4.367  -0.748   4.779  1.00  0.00     0.066 N 
ATOM     17  O   UNL     1       4.855  -0.546   3.641  1.00  0.00    -0.258 OA
ATOM     18  O   UNL     1       4.421  -1.867   5.340  1.00  0.00    -0.258 OA
ENDBRANCH   4  16
BRANCH   5  19
ATOM     19  O   UNL     1       0.865   2.583   5.102  1.00  0.00    -0.504 OA
ATOM     20  H   UNL     1       0.139   2.509   5.744  1.00  0.00     0.293 HD
ENDBRANCH   5  19
BRANCH   6  21
ATOM     21  O   UNL     1       2.058   0.493   3.750  1.00  0.00    -0.500 OA
ATOM     22  H   UNL     1       1.685   1.243   3.262  1.00  0.00     0.294 HD
ENDBRANCH   6  21
TORSDOF 5
ENDMDL
MODEL 4
REMARK VINA RESULT:    -4.199      3.779      7.069
REMARK INTER + INTRA:          -5.956
REMARK INTER:                  -4.961
REMARK INTRA:                  -0.995
REMARK UNBOUND:                -0.775
REMARK SMILES Cc1ccc(C(=O)c2cc(O)c(O)c([N+](=O)[O-])c2)cc1
REMARK SMILES IDX 8 1 18 2 9 3 14 4 10 5 12 6 6 7 7 8 5 9 4 10 19 11 3 12
REMARK SMILES IDX 20 13 2 14 1 15 15 16 17 17 16 18 11 19 13 21
REMARK H PARENT 11 20 13 22
ROOT
ATOM      1  C   UNL     1       3.494   1.979  10.459  1.00  0.00     0.033 A 
ATOM      2  C   UNL     1       4.747   2.321  10.913  1.00  0.00     0.102 A 
ATOM      3  C   UNL     1       2.342   2.293  11.139  1.00  0.00     0.063 A 
ATOM      4  C   UNL     1       4.852   3.019  12.116  1.00  0.00     0.315 A 
ATOM      5  C   UNL     1       2.447   2.991  12.343  1.00  0.00     0.165 A 
ATOM      6  C   UNL     1       3.703   3.354  12.831  1.00  0.00     0.237 A 
ENDROOT
BRANCH   1   7
ATOM      7  C   UNL     1       3.381   1.231   9.170  1.00  0.00     0.193 C 
ATOM      8  O   UNL     1       4.024   0.175   9.067  1.00  0.00    -0.289 OA
BRANCH   7   9
ATOM      9  C   UNL     1       2.558   1.699   8.067  1.00  0.00     0.023 A 
ATOM     10  C   UNL     1       2.756   2.977   7.542  1.00  0.00     0.012 A 
ATOM     11  C   UNL     1       1.572   0.871   7.532  1.00  0.00     0.012 A 
ATOM     12  C   UNL     1       1.967   3.425   6.483  1.00  0.00     0.004 A 
ATOM     13  C   UNL     1       0.782   1.320   6.473  1.00  0.00     0.004 A 
ATOM     14  C   UNL     1       0.980   2.597   5.948  1.00  0.00    -0.051 A 
ATOM     15  C   UNL     1       0.135   3.078   4.818  1.00  0.00     0.044 C 
ENDBRANCH   7   9
ENDBRANCH   1   7
BRANCH   4  16
ATOM     16  N   UNL     1       6.140   3.381  12.598  1.00  0.00     0.066 N 
ATOM     17  O   UNL     1       6.315   3.492  13.836  1.00  0.00    -0.258 OA
ATOM     18  O   UNL     1       7.063   3.577  11.773  1.00  0.00    -0.258 OA
ENDBRANCH   4  16
BRANCH   5  19
ATOM     19  O   UNL     1       1.315   3.312  13.031  1.00  0.00    -0.504 OA
ATOM     20  H   UNL     1       1.555   3.682  13.896  1.00  0.00     0.293 HD
ENDBRANCH   5  19
BRANCH   6  21
ATOM     21  O   UNL     1       3.793   4.037  14.009  1.00  0.00    -0.500 OA
ATOM     22  H   UNL     1       3.538   3.456  14.743  1.00  0.00     0.294 HD
ENDBRANCH   6  21
TORSDOF 5
ENDMDL
MODEL 5
REMARK VINA RESULT:    -4.193      3.724      6.832
REMARK INTER + INTRA:          -5.949
REMARK INTER:                  -4.962
REMARK INTRA:                  -0.987
REMARK UNBOUND:                -0.775
REMARK SMILES Cc1ccc(C(=O)c2cc(O)c(O)c([N+](=O)[O-])c2)cc1
REMARK SMILES IDX 8 1 18 2 9 3 14 4 10 5 12 6 6 7 7 8 5 9 4 10 19 11 3 12
REMARK SMILES IDX 20 13 2 14 1 15 15 16 17 17 16 18 11 19 13 21
REMARK H PARENT 11 20 13 22
ROOT
ATOM      1  C   UNL     1       3.324   3.148  10.125  1.00  0.00     0.033 A 
ATOM      2  C   UNL     1       2.356   3.258  11.096  1.00  0.00     0.102 A 
ATOM      3  C   UNL     1       4.669   3.140  10.409  1.00  0.00     0.063 A 
ATOM      4  C   UNL     1       2.756   3.364  12.427  1.00  0.00     0.315 A 
ATOM      5  C   UNL     1       5.070   3.247  11.741  1.00  0.00     0.165 A 
ATOM      6  C   UNL     1       4.113   3.358  12.751  1.00  0.00     0.237 A 
ENDROOT
BRANCH   1   7
ATOM      7  C   UNL     1       2.896   3.035   8.698  1.00  0.00     0.193 C 
ATOM      8  O   UNL     1       2.150   3.922   8.256  1.00  0.00    -0.289 OA
BRANCH   7   9
ATOM      9  C   UNL     1       3.322   1.940   7.840  1.00  0.00     0.023 A 
ATOM     10  C   UNL     1       3.102   0.620   8.234  1.00  0.00     0.012 A 
ATOM     11  C   UNL     1       3.949   2.210   6.624  1.00  0.00     0.012 A 
ATOM     12  C   UNL     1       3.510  -0.429   7.411  1.00  0.00     0.004 A 
ATOM     13  C   UNL     1       4.358   1.160   5.801  1.00  0.00     0.004 A 
ATOM     14  C   UNL     1       4.138  -0.160   6.194  1.00  0.00    -0.051 A 
ATOM     15  C   UNL     1       4.576  -1.282   5.316  1.00  0.00     0.044 C 
ENDBRANCH   7   9
ENDBRANCH   1   7
BRANCH   4  16
ATOM     16  N   UNL     1       1.767   3.477  13.442  1.00  0.00     0.066 N 
ATOM     17  O   UNL     1       0.638   2.965  13.248  1.00  0.00    -0.258 OA
ATOM     18  O   UNL     1       2.052   4.083  14.501  1.00  0.00    -0.258 OA
ENDBRANCH   4  16
BRANCH   5  19
ATOM     19  O   UNL     1       6.399   3.239  12.042  1.00  0.00    -0.504 OA
ATOM     20  H   UNL     1       6.632   4.062  12.503  1.00  0.00     0.293 HD
ENDBRANCH   5  19
BRANCH   6  21
ATOM     21  O   UNL     1       4.517   3.461  14.050  1.00  0.00    -0.500 OA
ATOM     22  H   UNL     1       5.224   2.820  14.224  1.00  0.00     0.294 HD
ENDBRANCH   6  21
TORSDOF 5
ENDMDL
MODEL 6
REMARK VINA RESULT:    -4.189      3.657      6.588
REMARK INTER + INTRA:          -5.944
REMARK INTER:                  -4.960
REMARK INTRA:                  -0.984
REMARK UNBOUND:                -0.775
REMARK SMILES Cc1ccc(C(=O)c2cc(O)c(O)c([N+](=O)[O-])c2)cc1
REMARK SMILES IDX 8 1 18 2 9 3 14 4 10 5 12 6 6 7 7 8 5 9 4 10 19 11 3 12
REMARK SMILES IDX 20 13 2 14 1 15 15 16 17 17 16 18 11 19 13 21
REMARK H PARENT 11 20 13 22
ROOT
ATOM      1  C   UNL     1       3.588   1.876  10.411  1.00  0.00     0.033 A 
ATOM      2  C   UNL     1       2.474   2.274  11.115  1.00  0.00     0.102 A 
ATOM      3  C   UNL     1       4.869   2.145  10.829  1.00  0.00     0.063 A 
ATOM      4  C   UNL     1       2.654   2.979  12.305  1.00  0.00     0.315 A 
ATOM      5  C   UNL     1       5.049   2.851  12.019  1.00  0.00     0.165 A 
ATOM      6  C   UNL     1       3.941   3.268  12.757  1.00  0.00     0.237 A 
ENDROOT
BRANCH   1   7
ATOM      7  C   UNL     1       3.396   1.121   9.137  1.00  0.00     0.193 C 
ATOM      8  O   UNL     1       3.974   0.029   9.030  1.00  0.00    -0.289 OA
BRANCH   7   9
ATOM      9  C   UNL     1       2.569   1.622   8.050  1.00  0.00     0.023 A 
ATOM     10  C   UNL     1       2.784   2.904   7.544  1.00  0.00     0.012 A 
ATOM     11  C   UNL     1       1.561   0.821   7.514  1.00  0.00     0.012 A 
ATOM     12  C   UNL     1       1.991   3.384   6.502  1.00  0.00     0.004 A 
ATOM     13  C   UNL     1       0.768   1.300   6.471  1.00  0.00     0.004 A 
ATOM     14  C   UNL     1       0.983   2.582   5.965  1.00  0.00    -0.051 A 
ATOM     15  C   UNL     1       0.135   3.097   4.852  1.00  0.00     0.044 C 
ENDBRANCH   7   9
ENDBRANCH   1   7
BRANCH   4  16
ATOM     16  N   UNL     1       1.512   3.396  13.043  1.00  0.00     0.066 N 
ATOM     17  O   UNL     1       0.452   3.655  12.425  1.00  0.00    -0.258 OA
ATOM     18  O   UNL     1       1.599   3.492  14.289  1.00  0.00    -0.258 OA
ENDBRANCH   4  16
BRANCH   5  19
ATOM     19  O   UNL     1       6.312   3.126  12.449  1.00  0.00    -0.504 OA
ATOM     20  H   UNL     1       6.936   2.496  12.051  1.00  0.00     0.293 HD
ENDBRANCH   5  19
BRANCH   6  21
ATOM     21  O   UNL     1       4.129   3.958  13.920  1.00  0.00    -0.500 OA
ATOM     22  H   UNL     1       4.257   4.899  13.723  1.00  0.00     0.294 HD
ENDBRANCH   6  21
TORSDOF 5
ENDMDL
MODEL 7
REMARK VINA RESULT:    -4.177      1.889      2.510
REMARK INTER + INTRA:          -5.928
REMARK INTER:                  -5.210
REMARK INTRA:                  -0.718
REMARK UNBOUND:                -0.775
REMARK SMILES Cc1ccc(C(=O)c2cc(O)c(O)c([N+](=O)[O-])c2)cc1
REMARK SMILES IDX 8 1 18 2 9 3 14 4 10 5 12 6 6 7 7 8 5 9 4 10 19 11 3 12
REMARK SMILES IDX 20 13 2 14 1 15 15 16 17 17 16 18 11 19 13 21
REMARK H PARENT 11 20 13 22
ROOT
ATOM      1  C   UNL     1       2.066   1.545   7.720  1.00  0.00     0.033 A 
ATOM      2  C   UNL     1       1.135   2.107   6.878  1.00  0.00     0.102 A 
ATOM      3  C   UNL     1       3.016   0.648   7.292  1.00  0.00     0.063 A 
ATOM      4  C   UNL     1       1.156   1.752   5.529  1.00  0.00     0.315 A 
ATOM      5  C   UNL     1       3.036   0.293   5.943  1.00  0.00     0.165 A 
ATOM      6  C   UNL     1       2.107   0.845   5.061  1.00  0.00     0.237 A 
ENDROOT
BRANCH   1   7
ATOM      7  C   UNL     1       2.044   1.925   9.165  1.00  0.00     0.193 C 
ATOM      8  O   UNL     1       0.939   1.953   9.729  1.00  0.00    -0.289 OA
BRANCH   7   9
ATOM      9  C   UNL     1       3.253   2.253   9.904  1.00  0.00     0.023 A 
ATOM     10  C   UNL     1       3.693   3.575   9.969  1.00  0.00     0.012 A 
ATOM     11  C   UNL     1       3.971   1.246  10.548  1.00  0.00     0.012 A 
ATOM     12  C   UNL     1       4.852   3.889  10.678  1.00  0.00     0.004 A 
ATOM     13  C   UNL     1       5.131   1.560  11.257  1.00  0.00     0.004 A 
ATOM     14  C   UNL     1       5.572   2.882  11.322  1.00  0.00    -0.051 A 
ATOM     15  C   UNL     1       6.812   3.218  12.079  1.00  0.00     0.044 C 
ENDBRANCH   7   9
ENDBRANCH   1   7
BRANCH   4  16
ATOM     16  N   UNL     1       0.200   2.325   4.646  1.00  0.00     0.066 N 
ATOM     17  O   UNL     1       0.213   3.566   4.461  1.00  0.00    -0.258 OA
ATOM     18  O   UNL     1      -0.626   1.574   4.077  1.00  0.00    -0.258 OA
ENDBRANCH   4  16
BRANCH   5  19
ATOM     19  O   UNL     1       3.971  -0.594   5.500  1.00  0.00    -0.504 OA
ATOM     20  H   UNL     1       4.855  -0.298   5.770  1.00  0.00     0.293 HD
ENDBRANCH   5  19
BRANCH   6  21
ATOM     21  O   UNL     1       2.137   0.490   3.744  1.00  0.00    -0.500 OA
ATOM     22  H   UNL     1       2.072  -0.475   3.664  1.00  0.00     0.294 HD
ENDBRANCH   6  21
TORSDOF 5
ENDMDL
MODEL 8
REMARK VINA RESULT:    -4.166      3.537      7.137
REMARK INTER + INTRA:          -5.915
REMARK INTER:                  -4.933
REMARK INTRA:                  -0.982
REMARK UNBOUND:                -0.775
REMARK SMILES Cc1ccc(C(=O)c2cc(O)c(O)c([N+](=O)[O-])c2)cc1
REMARK SMILES IDX 8 1 18 2 9 3 14 4 10 5 12 6 6 7 7 8 5 9 4 10 19 11 3 12
REMARK SMILES IDX 20 13 2 14 1 15 15 16 17 17 16 18 11 19 13 21
REMARK H PARENT 11 20 13 22
ROOT
ATOM      1  C   UNL     1       3.218   3.208  10.073  1.00  0.00     0.033 A 
ATOM      2  C   UNL     1       4.545   3.155  10.430  1.00  0.00     0.102 A 
ATOM      3  C   UNL     1       2.204   3.358  10.989  1.00  0.00     0.063 A 
ATOM      4  C   UNL     1       4.877   3.258  11.781  1.00  0.00     0.315 A 
ATOM      5  C   UNL     1       2.535   3.460  12.340  1.00  0.00     0.165 A 
ATOM      6  C   UNL     1       3.873   3.411  12.736  1.00  0.00     0.237 A 
ENDROOT
BRANCH   1   7
ATOM      7  C   UNL     1       2.862   3.097   8.626  1.00  0.00     0.193 C 
ATOM      8  O   UNL     1       2.168   4.003   8.140  1.00  0.00    -0.289 OA
BRANCH   7   9
ATOM      9  C   UNL     1       3.300   1.984   7.798  1.00  0.00     0.023 A 
ATOM     10  C   UNL     1       3.080   0.673   8.220  1.00  0.00     0.012 A 
ATOM     11  C   UNL     1       3.938   2.228   6.583  1.00  0.00     0.012 A 
ATOM     12  C   UNL     1       3.499  -0.394   7.427  1.00  0.00     0.004 A 
ATOM     13  C   UNL     1       4.358   1.160   5.788  1.00  0.00     0.004 A 
ATOM     14  C   UNL     1       4.138  -0.151   6.210  1.00  0.00    -0.051 A 
ATOM     15  C   UNL     1       4.588  -1.292   5.363  1.00  0.00     0.044 C 
ENDBRANCH   7   9
ENDBRANCH   1   7
BRANCH   4  16
ATOM     16  N   UNL     1       6.245   3.205  12.165  1.00  0.00     0.066 N 
ATOM     17  O   UNL     1       6.612   3.832  13.189  1.00  0.00    -0.258 OA
ATOM     18  O   UNL     1       7.044   2.534  11.471  1.00  0.00    -0.258 OA
ENDBRANCH   4  16
BRANCH   5  19
ATOM     19  O   UNL     1       1.544   3.610  13.262  1.00  0.00    -0.504 OA
ATOM     20  H   UNL     1       1.903   3.462  14.153  1.00  0.00     0.293 HD
ENDBRANCH   5  19
BRANCH   6  21
ATOM     21  O   UNL     1       4.185   3.513  14.061  1.00  0.00    -0.500 OA
ATOM     22  H   UNL     1       4.926   2.923  14.268  1.00  0.00     0.294 HD
ENDBRANCH   6  21
TORSDOF 5
ENDMDL
MODEL 9
REMARK VINA RESULT:    -4.045      2.363      4.096
REMARK INTER + INTRA:          -5.766
REMARK INTER:                  -4.769
REMARK INTRA:                  -0.998
REMARK UNBOUND:                -0.775
REMARK SMILES Cc1ccc(C(=O)c2cc(O)c(O)c([N+](=O)[O-])c2)cc1
REMARK SMILES IDX 8 1 18 2 9 3 14 4 10 5 12 6 6 7 7 8 5 9 4 10 19 11 3 12
REMARK SMILES IDX 20 13 2 14 1 15 15 16 17 17 16 18 11 19 13 21
REMARK H PARENT 11 20 13 22
ROOT
ATOM      1  C   UNL     1       3.061   3.454   9.853  1.00  0.00     0.033 A 
ATOM      2  C   UNL     1       2.995   2.413   8.955  1.00  0.00     0.102 A 
ATOM      3  C   UNL     1       2.852   4.764   9.494  1.00  0.00     0.063 A 
ATOM      4  C   UNL     1       2.701   2.700   7.622  1.00  0.00     0.315 A 
ATOM      5  C   UNL     1       2.559   5.051   8.160  1.00  0.00     0.165 A 
ATOM      6  C   UNL     1       2.483   4.019   7.224  1.00  0.00     0.237 A 
ENDROOT
BRANCH   1   7
ATOM      7  C   UNL     1       3.376   3.146  11.281  1.00  0.00     0.193 C 
ATOM      8  O   UNL     1       4.557   2.890  11.561  1.00  0.00    -0.289 OA
BRANCH   7   9
ATOM      9  C   UNL     1       2.359   3.141  12.320  1.00  0.00     0.023 A 
ATOM     10  C   UNL     1       2.507   3.953  13.445  1.00  0.00     0.012 A 
ATOM     11  C   UNL     1       1.235   2.325  12.191  1.00  0.00     0.012 A 
ATOM     12  C   UNL     1       1.531   3.948  14.441  1.00  0.00     0.004 A 
ATOM     13  C   UNL     1       0.258   2.320  13.188  1.00  0.00     0.004 A 
ATOM     14  C   UNL     1       0.406   3.132  14.313  1.00  0.00    -0.051 A 
ATOM     15  C   UNL     1      -0.636   3.126  15.379  1.00  0.00     0.044 C 
ENDBRANCH   7   9
ENDBRANCH   1   7
BRANCH   4  16
ATOM     16  N   UNL     1       2.629   1.636   6.683  1.00  0.00     0.066 N 
ATOM     17  O   UNL     1       2.231   0.511   7.071  1.00  0.00    -0.258 OA
ATOM     18  O   UNL     1       2.963   1.852   5.495  1.00  0.00    -0.258 OA
ENDBRANCH   4  16
BRANCH   5  19
ATOM     19  O   UNL     1       2.348   6.344   7.786  1.00  0.00    -0.504 OA
ATOM     20  H   UNL     1       1.452   6.616   8.045  1.00  0.00     0.293 HD
ENDBRANCH   5  19
BRANCH   6  21
ATOM     21  O   UNL     1       2.195   4.313   5.923  1.00  0.00    -0.500 OA
ATOM     22  H   UNL     1       1.758   3.554   5.506  1.00  0.00     0.294 HD
ENDBRANCH   6  21
TORSDOF 5
ENDMDL
