MODEL 1
REMARK VINA RESULT:    -5.152      0.000      0.000
REMARK INTER + INTRA:          -7.059
REMARK INTER:                  -6.357
REMARK INTRA:                  -0.702
REMARK UNBOUND:                -0.702
REMARK SMILES Cc1ccc(C(=O)c2cc(O)c(O)c([N+](=O)[O-])c2)cc1
REMARK SMILES IDX 8 1 18 2 9 3 14 4 10 5 12 6 6 7 7 8 5 9 4 10 19 11 3 12
REMARK SMILES IDX 20 13 2 14 1 15 15 16 17 17 16 18 11 19 13 21
REMARK H PARENT 11 20 13 22
ROOT
ATOM      1  C   UNL     1      -0.512   5.358  -7.774  1.00  0.00     0.033 A 
ATOM      2  C   UNL     1       0.585   5.486  -6.954  1.00  0.00     0.102 A 
ATOM      3  C   UNL     1      -1.369   4.284  -7.712  1.00  0.00     0.063 A 
ATOM      4  C   UNL     1       0.839   4.483  -6.019  1.00  0.00     0.315 A 
ATOM      5  C   UNL     1      -1.114   3.280  -6.777  1.00  0.00     0.165 A 
ATOM      6  C   UNL     1      -0.010   3.380  -5.930  1.00  0.00     0.237 A 
ENDROOT
BRANCH   1   7
ATOM      7  C   UNL     1      -0.785   6.432  -8.776  1.00  0.00     0.193 C 
ATOM      8  O   UNL     1      -1.972   6.665  -9.052  1.00  0.00    -0.289 OA
BRANCH   7   9
ATOM      9  C   UNL     1       0.279   7.188  -9.417  1.00  0.00     0.023 A 
ATOM     10  C   UNL     1       0.692   6.856 -10.707  1.00  0.00     0.012 A 
ATOM     11  C   UNL     1       0.886   8.247  -8.742  1.00  0.00     0.012 A 
ATOM     12  C   UNL     1       1.712   7.582 -11.321  1.00  0.00     0.004 A 
ATOM     13  C   UNL     1       1.906   8.974  -9.356  1.00  0.00     0.004 A 
ATOM     14  C   UNL     1       2.319   8.641 -10.646  1.00  0.00    -0.051 A 
ATOM     15  C   UNL     1       3.411   9.416 -11.303  1.00  0.00     0.044 C 
ENDBRANCH   7   9
ENDBRANCH   1   7
BRANCH   4  16
ATOM     16  N   UNL     1       1.970   4.601  -5.164  1.00  0.00     0.066 N 
ATOM     17  O   UNL     1       2.362   5.746  -4.834  1.00  0.00    -0.258 OA
ATOM     18  O   UNL     1       2.540   3.559  -4.766  1.00  0.00    -0.258 OA
ENDBRANCH   4  16
BRANCH   5  19
ATOM     19  O   UNL     1      -1.953   2.209  -6.701  1.00  0.00    -0.504 OA
ATOM     20  H   UNL     1      -2.490   2.273  -5.895  1.00  0.00     0.293 HD
ENDBRANCH   5  19
BRANCH   6  21
ATOM     21  O   UNL     1       0.228   2.392  -5.019  1.00  0.00    -0.500 OA
ATOM     22  H   UNL     1       0.190   1.528  -5.457  1.00  0.00     0.294 HD
ENDBRANCH   6  21
TORSDOF 5
ENDMDL
MODEL 2
REMARK VINA RESULT:    -5.099      2.010      3.540
REMARK INTER + INTRA:          -6.994
REMARK INTER:                  -6.260
REMARK INTRA:                  -0.734
REMARK UNBOUND:                -0.702
REMARK SMILES Cc1ccc(C(=O)c2cc(O)c(O)c([N+](=O)[O-])c2)cc1
REMARK SMILES IDX 8 1 18 2 9 3 14 4 10 5 12 6 6 7 7 8 5 9 4 10 19 11 3 12
REMARK SMILES IDX 20 13 2 14 1 15 15 16 17 17 16 18 11 19 13 21
REMARK H PARENT 11 20 13 22
ROOT
ATOM      1  C   UNL     1       1.273   5.214  -7.796  1.00  0.00     0.033 A 
ATOM      2  C   UNL     1       0.194   4.427  -8.126  1.00  0.00     0.102 A 
ATOM      3  C   UNL     1       1.929   5.114  -6.592  1.00  0.00     0.063 A 
ATOM      4  C   UNL     1      -0.254   3.487  -7.199  1.00  0.00     0.315 A 
ATOM      5  C   UNL     1       1.481   4.174  -5.664  1.00  0.00     0.165 A 
ATOM      6  C   UNL     1       0.389   3.360  -5.968  1.00  0.00     0.237 A 
ENDROOT
BRANCH   1   7
ATOM      7  C   UNL     1       1.753   6.222  -8.790  1.00  0.00     0.193 C 
ATOM      8  O   UNL     1       2.979   6.366  -8.906  1.00  0.00    -0.289 OA
BRANCH   7   9
ATOM      9  C   UNL     1       0.841   7.014  -9.599  1.00  0.00     0.023 A 
ATOM     10  C   UNL     1       0.513   8.313  -9.211  1.00  0.00     0.012 A 
ATOM     11  C   UNL     1       0.295   6.475 -10.764  1.00  0.00     0.012 A 
ATOM     12  C   UNL     1      -0.361   9.073  -9.988  1.00  0.00     0.004 A 
ATOM     13  C   UNL     1      -0.580   7.235 -11.541  1.00  0.00     0.004 A 
ATOM     14  C   UNL     1      -0.908   8.534 -11.154  1.00  0.00    -0.051 A 
ATOM     15  C   UNL     1      -1.844   9.346 -11.983  1.00  0.00     0.044 C 
ENDBRANCH   7   9
ENDBRANCH   1   7
BRANCH   4  16
ATOM     16  N   UNL     1      -1.368   2.666  -7.526  1.00  0.00     0.066 N 
ATOM     17  O   UNL     1      -1.483   2.240  -8.700  1.00  0.00    -0.258 OA
ATOM     18  O   UNL     1      -2.202   2.392  -6.631  1.00  0.00    -0.258 OA
ENDBRANCH   4  16
BRANCH   5  19
ATOM     19  O   UNL     1       2.119   4.061  -4.466  1.00  0.00    -0.504 OA
ATOM     20  H   UNL     1       2.923   3.525  -4.574  1.00  0.00     0.293 HD
ENDBRANCH   5  19
BRANCH   6  21
ATOM     21  O   UNL     1      -0.039   2.443  -5.052  1.00  0.00    -0.500 OA
ATOM     22  H   UNL     1       0.563   2.435  -4.292  1.00  0.00     0.294 HD
ENDBRANCH   6  21
TORSDOF 5
ENDMDL
MODEL 3
REMARK VINA RESULT:    -4.582      3.581      4.457
REMARK INTER + INTRA:          -6.355
REMARK INTER:                  -5.357
REMARK INTRA:                  -0.998
REMARK UNBOUND:                -0.702
REMARK SMILES Cc1ccc(C(=O)c2cc(O)c(O)c([N+](=O)[O-])c2)cc1
REMARK SMILES IDX 8 1 18 2 9 3 14 4 10 5 12 6 6 7 7 8 5 9 4 10 19 11 3 12
REMARK SMILES IDX 20 13 2 14 1 15 15 16 17 17 16 18 11 19 13 21
REMARK H PARENT 11 20 13 22
ROOT
ATOM      1  C   UNL     1       0.340   6.925 -10.660  1.00  0.00     0.033 A 
ATOM      2  C   UNL     1       0.348   6.571  -9.330  1.00  0.00     0.102 A 
ATOM      3  C   UNL     1       0.254   6.004 -11.676  1.00  0.00     0.063 A 
ATOM      4  C   UNL     1       0.264   5.219  -8.999  1.00  0.00     0.315 A 
ATOM      5  C   UNL     1       0.171   4.651 -11.346  1.00  0.00     0.165 A 
ATOM      6  C   UNL     1       0.176   4.258 -10.006  1.00  0.00     0.237 A 
ENDROOT
BRANCH   1   7
ATOM      7  C   UNL     1       0.430   8.373 -11.014  1.00  0.00     0.193 C 
ATOM      8  O   UNL     1       1.537   8.919 -10.900  1.00  0.00    -0.289 OA
BRANCH   7   9
ATOM      9  C   UNL     1      -0.719   9.135 -11.477  1.00  0.00     0.023 A 
ATOM     10  C   UNL     1      -0.658   9.821 -12.691  1.00  0.00     0.012 A 
ATOM     11  C   UNL     1      -1.882   9.181 -10.709  1.00  0.00     0.012 A 
ATOM     12  C   UNL     1      -1.760  10.551 -13.135  1.00  0.00     0.004 A 
ATOM     13  C   UNL     1      -2.985   9.911 -11.153  1.00  0.00     0.004 A 
ATOM     14  C   UNL     1      -2.924  10.597 -12.366  1.00  0.00    -0.051 A 
ATOM     15  C   UNL     1      -4.101  11.379 -12.841  1.00  0.00     0.044 C 
ENDBRANCH   7   9
ENDBRANCH   1   7
BRANCH   4  16
ATOM     16  N   UNL     1       0.271   4.838  -7.629  1.00  0.00     0.066 N 
ATOM     17  O   UNL     1      -0.364   5.537  -6.803  1.00  0.00    -0.258 OA
ATOM     18  O   UNL     1       0.910   3.816  -7.288  1.00  0.00    -0.258 OA
ENDBRANCH   4  16
BRANCH   5  19
ATOM     19  O   UNL     1       0.084   3.723 -12.340  1.00  0.00    -0.504 OA
ATOM     20  H   UNL     1       0.805   3.861 -12.977  1.00  0.00     0.293 HD
ENDBRANCH   5  19
BRANCH   6  21
ATOM     21  O   UNL     1       0.093   2.932  -9.695  1.00  0.00    -0.500 OA
ATOM     22  H   UNL     1       0.639   2.418 -10.311  1.00  0.00     0.294 HD
ENDBRANCH   6  21
TORSDOF 5
ENDMDL
MODEL 4
REMARK VINA RESULT:    -4.532      1.795      1.979
REMARK INTER + INTRA:          -6.295
REMARK INTER:                  -5.547
REMARK INTRA:                  -0.748
REMARK UNBOUND:                -0.702
REMARK SMILES Cc1ccc(C(=O)c2cc(O)c(O)c([N+](=O)[O-])c2)cc1
REMARK SMILES IDX 8 1 18 2 9 3 14 4 10 5 12 6 6 7 7 8 5 9 4 10 19 11 3 12
REMARK SMILES IDX 20 13 2 14 1 15 15 16 17 17 16 18 11 19 13 21
REMARK H PARENT 11 20 13 22
ROOT
ATOM      1  C   UNL     1       0.383   3.973  -8.393  1.00  0.00     0.033 A 
ATOM      2  C   UNL     1       1.392   4.218  -7.491  1.00  0.00     0.102 A 
ATOM      3  C   UNL     1      -0.787   3.336  -8.051  1.00  0.00     0.063 A 
ATOM      4  C   UNL     1       1.220   3.803  -6.170  1.00  0.00     0.315 A 
ATOM      5  C   UNL     1      -0.958   2.921  -6.730  1.00  0.00     0.165 A 
ATOM      6  C   UNL     1       0.046   3.155  -5.789  1.00  0.00     0.237 A 
ENDROOT
BRANCH   1   7
ATOM      7  C   UNL     1       0.566   4.416  -9.808  1.00  0.00     0.193 C 
ATOM      8  O   UNL     1       0.995   3.579 -10.616  1.00  0.00    -0.289 OA
BRANCH   7   9
ATOM      9  C   UNL     1       0.261   5.769 -10.247  1.00  0.00     0.023 A 
ATOM     10  C   UNL     1      -0.258   5.988 -11.523  1.00  0.00     0.012 A 
ATOM     11  C   UNL     1       0.488   6.847  -9.392  1.00  0.00     0.012 A 
ATOM     12  C   UNL     1      -0.550   7.285 -11.943  1.00  0.00     0.004 A 
ATOM     13  C   UNL     1       0.196   8.145  -9.812  1.00  0.00     0.004 A 
ATOM     14  C   UNL     1      -0.324   8.364 -11.088  1.00  0.00    -0.051 A 
ATOM     15  C   UNL     1      -0.635   9.751 -11.538  1.00  0.00     0.044 C 
ENDBRANCH   7   9
ENDBRANCH   1   7
BRANCH   4  16
ATOM     16  N   UNL     1       2.254   4.050  -5.225  1.00  0.00     0.066 N 
ATOM     17  O   UNL     1       2.790   5.184  -5.196  1.00  0.00    -0.258 OA
ATOM     18  O   UNL     1       2.599   3.128  -4.450  1.00  0.00    -0.258 OA
ENDBRANCH   4  16
BRANCH   5  19
ATOM     19  O   UNL     1      -2.111   2.289  -6.372  1.00  0.00    -0.504 OA
ATOM     20  H   UNL     1      -2.263   2.405  -5.419  1.00  0.00     0.293 HD
ENDBRANCH   5  19
BRANCH   6  21
ATOM     21  O   UNL     1      -0.134   2.745  -4.500  1.00  0.00    -0.500 OA
ATOM     22  H   UNL     1       0.129   1.815  -4.414  1.00  0.00     0.294 HD
ENDBRANCH   6  21
TORSDOF 5
ENDMDL
MODEL 5
REMARK VINA RESULT:    -4.514      2.351      4.039
REMARK INTER + INTRA:          -6.272
REMARK INTER:                  -5.299
REMARK INTRA:                  -0.973
REMARK UNBOUND:                -0.702
REMARK SMILES Cc1ccc(C(=O)c2cc(O)c(O)c([N+](=O)[O-])c2)cc1
REMARK SMILES IDX 8 1 18 2 9 3 14 4 10 5 12 6 6 7 7 8 5 9 4 10 19 11 3 12
REMARK SMILES IDX 20 13 2 14 1 15 15 16 17 17 16 18 11 19 13 21
REMARK H PARENT 11 20 13 22
ROOT
ATOM      1  C   UNL     1       0.930   8.201  -9.253  1.00  0.00     0.033 A 
ATOM      2  C   UNL     1       0.793   6.848  -9.050  1.00  0.00     0.102 A 
ATOM      3  C   UNL     1       0.992   9.108  -8.221  1.00  0.00     0.063 A 
ATOM      4  C   UNL     1       0.714   6.374  -7.741  1.00  0.00     0.315 A 
ATOM      5  C   UNL     1       0.912   8.634  -6.911  1.00  0.00     0.165 A 
ATOM      6  C   UNL     1       0.774   7.266  -6.671  1.00  0.00     0.237 A 
ENDROOT
BRANCH   1   7
ATOM      7  C   UNL     1       1.014   8.709 -10.655  1.00  0.00     0.193 C 
ATOM      8  O   UNL     1      -0.048   8.805 -11.290  1.00  0.00    -0.289 OA
BRANCH   7   9
ATOM      9  C   UNL     1       2.275   9.084 -11.275  1.00  0.00     0.023 A 
ATOM     10  C   UNL     1       3.345   8.189 -11.275  1.00  0.00     0.012 A 
ATOM     11  C   UNL     1       2.414  10.338 -11.869  1.00  0.00     0.012 A 
ATOM     12  C   UNL     1       4.554   8.549 -11.869  1.00  0.00     0.004 A 
ATOM     13  C   UNL     1       3.624  10.698 -12.464  1.00  0.00     0.004 A 
ATOM     14  C   UNL     1       4.694   9.803 -12.464  1.00  0.00    -0.051 A 
ATOM     15  C   UNL     1       5.988  10.188 -13.098  1.00  0.00     0.044 C 
ENDBRANCH   7   9
ENDBRANCH   1   7
BRANCH   4  16
ATOM     16  N   UNL     1       0.573   4.977  -7.516  1.00  0.00     0.066 N 
ATOM     17  O   UNL     1      -0.119   4.586  -6.545  1.00  0.00    -0.258 OA
ATOM     18  O   UNL     1       1.143   4.177  -8.294  1.00  0.00    -0.258 OA
ENDBRANCH   4  16
BRANCH   5  19
ATOM     19  O   UNL     1       0.973   9.518  -5.876  1.00  0.00    -0.504 OA
ATOM     20  H   UNL     1       0.744  10.407  -6.193  1.00  0.00     0.293 HD
ENDBRANCH   5  19
BRANCH   6  21
ATOM     21  O   UNL     1       0.699   6.815  -5.385  1.00  0.00    -0.500 OA
ATOM     22  H   UNL     1       0.153   6.014  -5.353  1.00  0.00     0.294 HD
ENDBRANCH   6  21
TORSDOF 5
ENDMDL
MODEL 6
REMARK VINA RESULT:    -4.489      3.603      6.543
REMARK INTER + INTRA:          -6.241
REMARK INTER:                  -5.288
REMARK INTRA:                  -0.953
REMARK UNBOUND:                -0.702
REMARK SMILES Cc1ccc(C(=O)c2cc(O)c(O)c([N+](=O)[O-])c2)cc1
REMARK SMILES IDX 8 1 18 2 9 3 14 4 10 5 12 6 6 7 7 8 5 9 4 10 19 11 3 12
REMARK SMILES IDX 20 13 2 14 1 15 15 16 17 17 16 18 11 19 13 21
REMARK H PARENT 11 20 13 22
ROOT
ATOM      1  C   UNL     1       0.389   7.147 -10.521  1.00  0.00     0.033 A 
ATOM      2  C   UNL     1       1.636   7.714 -10.648  1.00  0.00     0.102 A 
ATOM      3  C   UNL     1      -0.746   7.710 -11.055  1.00  0.00     0.063 A 
ATOM      4  C   UNL     1       1.754   8.913 -11.350  1.00  0.00     0.315 A 
ATOM      5  C   UNL     1      -0.628   8.910 -11.757  1.00  0.00     0.165 A 
ATOM      6  C   UNL     1       0.623   9.511 -11.905  1.00  0.00     0.237 A 
ENDROOT
BRANCH   1   7
ATOM      7  C   UNL     1       0.262   5.862  -9.768  1.00  0.00     0.193 C 
ATOM      8  O   UNL     1      -0.323   4.927 -10.334  1.00  0.00    -0.289 OA
BRANCH   7   9
ATOM      9  C   UNL     1       0.793   5.689  -8.426  1.00  0.00     0.023 A 
ATOM     10  C   UNL     1       0.494   6.622  -7.432  1.00  0.00     0.012 A 
ATOM     11  C   UNL     1       1.602   4.592  -8.131  1.00  0.00     0.012 A 
ATOM     12  C   UNL     1       1.004   6.455  -6.144  1.00  0.00     0.004 A 
ATOM     13  C   UNL     1       2.112   4.425  -6.843  1.00  0.00     0.004 A 
ATOM     14  C   UNL     1       1.813   5.357  -5.849  1.00  0.00    -0.051 A 
ATOM     15  C   UNL     1       2.359   5.181  -4.473  1.00  0.00     0.044 C 
ENDBRANCH   7   9
ENDBRANCH   1   7
BRANCH   4  16
ATOM     16  N   UNL     1       3.036   9.512 -11.491  1.00  0.00     0.066 N 
ATOM     17  O   UNL     1       3.883   9.352 -10.578  1.00  0.00    -0.258 OA
ATOM     18  O   UNL     1       3.283  10.180 -12.521  1.00  0.00    -0.258 OA
ENDBRANCH   4  16
BRANCH   5  19
ATOM     19  O   UNL     1      -1.741   9.483 -12.294  1.00  0.00    -0.504 OA
ATOM     20  H   UNL     1      -1.480  10.136 -12.964  1.00  0.00     0.293 HD
ENDBRANCH   5  19
BRANCH   6  21
ATOM     21  O   UNL     1       0.726  10.684 -12.595  1.00  0.00    -0.500 OA
ATOM     22  H   UNL     1       0.921  11.408 -11.980  1.00  0.00     0.294 HD
ENDBRANCH   6  21
TORSDOF 5
ENDMDL
MODEL 7
REMARK VINA RESULT:    -4.475      3.475      7.019
REMARK INTER + INTRA:          -6.224
REMARK INTER:                  -5.324
REMARK INTRA:                  -0.899
REMARK UNBOUND:                -0.702
REMARK SMILES Cc1ccc(C(=O)c2cc(O)c(O)c([N+](=O)[O-])c2)cc1
REMARK SMILES IDX 8 1 18 2 9 3 14 4 10 5 12 6 6 7 7 8 5 9 4 10 19 11 3 12
REMARK SMILES IDX 20 13 2 14 1 15 15 16 17 17 16 18 11 19 13 21
REMARK H PARENT 11 20 13 22
ROOT
ATOM      1  C   UNL     1       1.013   8.048  -9.219  1.00  0.00     0.033 A 
ATOM      2  C   UNL     1      -0.028   8.368 -10.060  1.00  0.00     0.102 A 
ATOM      3  C   UNL     1       2.314   8.416  -9.468  1.00  0.00     0.063 A 
ATOM      4  C   UNL     1       0.249   9.097 -11.216  1.00  0.00     0.315 A 
ATOM      5  C   UNL     1       2.591   9.144 -10.625  1.00  0.00     0.165 A 
ATOM      6  C   UNL     1       1.558   9.486 -11.499  1.00  0.00     0.237 A 
ENDROOT
BRANCH   1   7
ATOM      7  C   UNL     1       0.716   7.267  -7.980  1.00  0.00     0.193 C 
ATOM      8  O   UNL     1       1.058   7.766  -6.897  1.00  0.00    -0.289 OA
BRANCH   7   9
ATOM      9  C   UNL     1       0.056   5.972  -8.015  1.00  0.00     0.023 A 
ATOM     10  C   UNL     1       0.394   5.042  -8.998  1.00  0.00     0.012 A 
ATOM     11  C   UNL     1      -0.916   5.659  -7.064  1.00  0.00     0.012 A 
ATOM     12  C   UNL     1      -0.239   3.800  -9.030  1.00  0.00     0.004 A 
ATOM     13  C   UNL     1      -1.550   4.417  -7.096  1.00  0.00     0.004 A 
ATOM     14  C   UNL     1      -1.212   3.487  -8.080  1.00  0.00    -0.051 A 
ATOM     15  C   UNL     1      -1.889   2.160  -8.116  1.00  0.00     0.044 C 
ENDBRANCH   7   9
ENDBRANCH   1   7
BRANCH   4  16
ATOM     16  N   UNL     1      -0.816   9.435 -12.095  1.00  0.00     0.066 N 
ATOM     17  O   UNL     1      -0.738  10.494 -12.764  1.00  0.00    -0.258 OA
ATOM     18  O   UNL     1      -1.802   8.665 -12.177  1.00  0.00    -0.258 OA
ENDBRANCH   4  16
BRANCH   5  19
ATOM     19  O   UNL     1       3.875   9.518 -10.888  1.00  0.00    -0.504 OA
ATOM     20  H   UNL     1       3.879  10.395 -11.305  1.00  0.00     0.293 HD
ENDBRANCH   5  19
BRANCH   6  21
ATOM     21  O   UNL     1       1.842  10.199 -12.627  1.00  0.00    -0.500 OA
ATOM     22  H   UNL     1       2.451  10.923 -12.411  1.00  0.00     0.294 HD
ENDBRANCH   6  21
TORSDOF 5
ENDMDL
MODEL 8
REMARK VINA RESULT:    -4.454      3.741      7.036
REMARK INTER + INTRA:          -6.199
REMARK INTER:                  -5.228
REMARK INTRA:                  -0.971
REMARK UNBOUND:                -0.702
REMARK SMILES Cc1ccc(C(=O)c2cc(O)c(O)c([N+](=O)[O-])c2)cc1
REMARK SMILES IDX 8 1 18 2 9 3 14 4 10 5 12 6 6 7 7 8 5 9 4 10 19 11 3 12
REMARK SMILES IDX 20 13 2 14 1 15 15 16 17 17 16 18 11 19 13 21
REMARK H PARENT 11 20 13 22
ROOT
ATOM      1  C   UNL     1       0.535   7.285 -10.489  1.00  0.00     0.033 A 
ATOM      2  C   UNL     1      -0.545   7.982 -10.980  1.00  0.00     0.102 A 
ATOM      3  C   UNL     1       1.833   7.700 -10.663  1.00  0.00     0.063 A 
ATOM      4  C   UNL     1      -0.311   9.163 -11.683  1.00  0.00     0.315 A 
ATOM      5  C   UNL     1       2.067   8.882 -11.367  1.00  0.00     0.165 A 
ATOM      6  C   UNL     1       0.994   9.614 -11.877  1.00  0.00     0.237 A 
ENDROOT
BRANCH   1   7
ATOM      7  C   UNL     1       0.285   6.019  -9.735  1.00  0.00     0.193 C 
ATOM      8  O   UNL     1      -0.397   5.148 -10.296  1.00  0.00    -0.289 OA
BRANCH   7   9
ATOM      9  C   UNL     1       0.809   5.792  -8.398  1.00  0.00     0.023 A 
ATOM     10  C   UNL     1       0.514   6.689  -7.372  1.00  0.00     0.012 A 
ATOM     11  C   UNL     1       1.605   4.676  -8.141  1.00  0.00     0.012 A 
ATOM     12  C   UNL     1       1.016   6.471  -6.089  1.00  0.00     0.004 A 
ATOM     13  C   UNL     1       2.108   4.457  -6.858  1.00  0.00     0.004 A 
ATOM     14  C   UNL     1       1.813   5.354  -5.832  1.00  0.00    -0.051 A 
ATOM     15  C   UNL     1       2.351   5.122  -4.461  1.00  0.00     0.044 C 
ENDBRANCH   7   9
ENDBRANCH   1   7
BRANCH   4  16
ATOM     16  N   UNL     1      -1.417   9.896 -12.196  1.00  0.00     0.066 N 
ATOM     17  O   UNL     1      -1.247  10.626 -13.202  1.00  0.00    -0.258 OA
ATOM     18  O   UNL     1      -2.529   9.789 -11.629  1.00  0.00    -0.258 OA
ENDBRANCH   4  16
BRANCH   5  19
ATOM     19  O   UNL     1       3.348   9.310 -11.549  1.00  0.00    -0.504 OA
ATOM     20  H   UNL     1       3.962   8.571 -11.402  1.00  0.00     0.293 HD
ENDBRANCH   5  19
BRANCH   6  21
ATOM     21  O   UNL     1       1.235  10.768 -12.564  1.00  0.00    -0.500 OA
ATOM     22  H   UNL     1       1.890  11.301 -12.087  1.00  0.00     0.294 HD
ENDBRANCH   6  21
TORSDOF 5
ENDMDL
MODEL 9
REMARK VINA RESULT:    -4.313      1.263      2.717
REMARK INTER + INTRA:          -6.024
REMARK INTER:                  -5.398
REMARK INTRA:                  -0.626
REMARK UNBOUND:                -0.702
REMARK SMILES Cc1ccc(C(=O)c2cc(O)c(O)c([N+](=O)[O-])c2)cc1
REMARK SMILES IDX 8 1 18 2 9 3 14 4 10 5 12 6 6 7 7 8 5 9 4 10 19 11 3 12
REMARK SMILES IDX 20 13 2 14 1 15 15 16 17 17 16 18 11 19 13 21
REMARK H PARENT 11 20 13 22
ROOT
ATOM      1  C   UNL     1      -0.359   5.660  -8.067  1.00  0.00     0.033 A 
ATOM      2  C   UNL     1      -1.140   4.533  -8.166  1.00  0.00     0.102 A 
ATOM      3  C   UNL     1       0.594   5.825  -7.090  1.00  0.00     0.063 A 
ATOM      4  C   UNL     1      -0.957   3.510  -7.235  1.00  0.00     0.315 A 
ATOM      5  C   UNL     1       0.776   4.803  -6.157  1.00  0.00     0.165 A 
ATOM      6  C   UNL     1       0.001   3.645  -6.231  1.00  0.00     0.237 A 
ENDROOT
BRANCH   1   7
ATOM      7  C   UNL     1      -0.555   6.755  -9.064  1.00  0.00     0.193 C 
ATOM      8  O   UNL     1      -1.721   7.038  -9.378  1.00  0.00    -0.289 OA
BRANCH   7   9
ATOM      9  C   UNL     1       0.559   7.477  -9.658  1.00  0.00     0.023 A 
ATOM     10  C   UNL     1       1.027   7.120 -10.923  1.00  0.00     0.012 A 
ATOM     11  C   UNL     1       1.159   8.528  -8.964  1.00  0.00     0.012 A 
ATOM     12  C   UNL     1       2.095   7.812 -11.492  1.00  0.00     0.004 A 
ATOM     13  C   UNL     1       2.228   9.221  -9.534  1.00  0.00     0.004 A 
ATOM     14  C   UNL     1       2.696   8.864 -10.798  1.00  0.00    -0.051 A 
ATOM     15  C   UNL     1       3.838   9.603 -11.407  1.00  0.00     0.044 C 
ENDBRANCH   7   9
ENDBRANCH   1   7
BRANCH   4  16
ATOM     16  N   UNL     1      -1.758   2.338  -7.325  1.00  0.00     0.066 N 
ATOM     17  O   UNL     1      -2.520   2.050  -6.371  1.00  0.00    -0.258 OA
ATOM     18  O   UNL     1      -1.679   1.629  -8.355  1.00  0.00    -0.258 OA
ENDBRANCH   4  16
BRANCH   5  19
ATOM     19  O   UNL     1       1.716   4.948  -5.182  1.00  0.00    -0.504 OA
ATOM     20  H   UNL     1       1.620   5.819  -4.764  1.00  0.00     0.293 HD
ENDBRANCH   5  19
BRANCH   6  21
ATOM     21  O   UNL     1       0.189   2.652  -5.314  1.00  0.00    -0.500 OA
ATOM     22  H   UNL     1       0.939   2.875  -4.741  1.00  0.00     0.294 HD
ENDBRANCH   6  21
TORSDOF 5
ENDMDL
