MODEL 1
REMARK VINA RESULT:    -7.043      0.000      0.000
REMARK INTER + INTRA:          -8.839
REMARK INTER:                  -8.278
REMARK INTRA:                  -0.561
REMARK UNBOUND:                -0.561
REMARK SMILES O=C(O)c1cc(-c2ccc(F)cc2F)ccc1O
REMARK SMILES IDX 6 1 5 2 15 3 4 4 17 5 16 6 7 7 13 8 12 9 8 10 10 11 9 12
REMARK SMILES IDX 14 13 11 14 2 15 1 16 3 17 18 19
REMARK H PARENT 3 18 18 20
ROOT
ATOM      1  C   UNL     1       0.377   5.402  -7.851  1.00  0.00    -0.014 A 
ATOM      2  C   UNL     1       1.268   5.388  -6.779  1.00  0.00     0.028 A 
ATOM      3  C   UNL     1      -0.600   4.413  -7.958  1.00  0.00     0.013 A 
ATOM      4  C   UNL     1       1.183   4.384  -5.813  1.00  0.00     0.102 A 
ATOM      5  C   UNL     1       0.206   3.395  -5.921  1.00  0.00     0.130 A 
ATOM      6  C   UNL     1      -0.686   3.410  -6.994  1.00  0.00     0.048 A 
ENDROOT
BRANCH   1   7
ATOM      7  C   UNL     1       0.466   6.442  -8.853  1.00  0.00     0.018 A 
ATOM      8  C   UNL     1       0.645   7.772  -8.469  1.00  0.00     0.133 A 
ATOM      9  C   UNL     1       0.730   8.771  -9.438  1.00  0.00     0.079 A 
ATOM     10  C   UNL     1       0.373   6.113 -10.205  1.00  0.00     0.015 A 
ATOM     11  C   UNL     1       0.636   8.442 -10.790  1.00  0.00     0.126 A 
ATOM     12  C   UNL     1       0.458   7.113 -11.173  1.00  0.00     0.040 A 
ATOM     13  F   UNL     1       0.734   8.105  -7.174  1.00  0.00    -0.206 F 
ATOM     14  F   UNL     1       0.717   9.401 -11.721  1.00  0.00    -0.207 F 
ENDBRANCH   1   7
BRANCH   4  15
ATOM     15  C   UNL     1       2.124   4.387  -4.701  1.00  0.00     0.339 C 
ATOM     16  O   UNL     1       2.846   3.442  -4.375  1.00  0.00    -0.246 OA
BRANCH  15  17
ATOM     17  O   UNL     1       2.132   5.572  -4.033  1.00  0.00    -0.478 OA
ATOM     18  H   UNL     1       2.671   5.526  -3.215  1.00  0.00     0.297 HD
ENDBRANCH  15  17
ENDBRANCH   4  15
BRANCH   5  19
ATOM     19  O   UNL     1       0.105   2.406  -4.988  1.00  0.00    -0.507 OA
ATOM     20  H   UNL     1       0.681   2.621  -4.234  1.00  0.00     0.293 HD
ENDBRANCH   5  19
TORSDOF 4
ENDMDL
MODEL 2
REMARK VINA RESULT:    -7.023      1.707      3.202
REMARK INTER + INTRA:          -8.815
REMARK INTER:                  -8.186
REMARK INTRA:                  -0.630
REMARK UNBOUND:                -0.561
REMARK SMILES O=C(O)c1cc(-c2ccc(F)cc2F)ccc1O
REMARK SMILES IDX 6 1 5 2 15 3 4 4 17 5 16 6 7 7 13 8 12 9 8 10 10 11 9 12
REMARK SMILES IDX 14 13 11 14 2 15 1 16 3 17 18 19
REMARK H PARENT 3 18 18 20
ROOT
ATOM      1  C   UNL     1       0.390   5.355  -7.991  1.00  0.00    -0.014 A 
ATOM      2  C   UNL     1      -0.623   4.410  -8.146  1.00  0.00     0.028 A 
ATOM      3  C   UNL     1       1.264   5.269  -6.907  1.00  0.00     0.013 A 
ATOM      4  C   UNL     1      -0.763   3.378  -7.218  1.00  0.00     0.102 A 
ATOM      5  C   UNL     1       0.112   3.291  -6.135  1.00  0.00     0.130 A 
ATOM      6  C   UNL     1       1.126   4.237  -5.979  1.00  0.00     0.048 A 
ENDROOT
BRANCH   1   7
ATOM      7  C   UNL     1       0.534   6.427  -8.952  1.00  0.00     0.018 A 
ATOM      8  C   UNL     1       0.473   6.155 -10.319  1.00  0.00     0.133 A 
ATOM      9  C   UNL     1       0.613   7.191 -11.242  1.00  0.00     0.079 A 
ATOM     10  C   UNL     1       0.734   7.734  -8.509  1.00  0.00     0.015 A 
ATOM     11  C   UNL     1       0.814   8.498 -10.800  1.00  0.00     0.126 A 
ATOM     12  C   UNL     1       0.874   8.769  -9.433  1.00  0.00     0.040 A 
ATOM     13  F   UNL     1       0.284   4.904 -10.761  1.00  0.00    -0.206 F 
ATOM     14  F   UNL     1       0.948   9.494 -11.685  1.00  0.00    -0.207 F 
ENDBRANCH   1   7
BRANCH   4  15
ATOM     15  C   UNL     1      -1.828   2.400  -7.398  1.00  0.00     0.339 C 
ATOM     16  O   UNL     1      -2.586   2.000  -6.512  1.00  0.00    -0.246 OA
BRANCH  15  17
ATOM     17  O   UNL     1      -1.911   1.955  -8.681  1.00  0.00    -0.478 OA
ATOM     18  H   UNL     1      -2.749   2.230  -9.109  1.00  0.00     0.297 HD
ENDBRANCH  15  17
ENDBRANCH   4  15
BRANCH   5  19
ATOM     19  O   UNL     1      -0.007   2.290  -5.217  1.00  0.00    -0.507 OA
ATOM     20  H   UNL     1       0.859   2.137  -4.801  1.00  0.00     0.293 HD
ENDBRANCH   5  19
TORSDOF 4
ENDMDL
MODEL 3
REMARK VINA RESULT:    -6.997      1.304      2.768
REMARK INTER + INTRA:          -8.785
REMARK INTER:                  -8.172
REMARK INTRA:                  -0.613
REMARK UNBOUND:                -0.561
REMARK SMILES O=C(O)c1cc(-c2ccc(F)cc2F)ccc1O
REMARK SMILES IDX 6 1 5 2 15 3 4 4 17 5 16 6 7 7 13 8 12 9 8 10 10 11 9 12
REMARK SMILES IDX 14 13 11 14 2 15 1 16 3 17 18 19
REMARK H PARENT 3 18 18 20
ROOT
ATOM      1  C   UNL     1       0.368   5.375  -7.963  1.00  0.00    -0.014 A 
ATOM      2  C   UNL     1      -0.637   4.423  -8.129  1.00  0.00     0.028 A 
ATOM      3  C   UNL     1       1.238   5.289  -6.875  1.00  0.00     0.013 A 
ATOM      4  C   UNL     1      -0.774   3.384  -7.207  1.00  0.00     0.102 A 
ATOM      5  C   UNL     1       0.096   3.299  -6.120  1.00  0.00     0.130 A 
ATOM      6  C   UNL     1       1.102   4.251  -5.954  1.00  0.00     0.048 A 
ENDROOT
BRANCH   1   7
ATOM      7  C   UNL     1       0.510   6.453  -8.918  1.00  0.00     0.018 A 
ATOM      8  C   UNL     1       0.697   7.762  -8.473  1.00  0.00     0.133 A 
ATOM      9  C   UNL     1       0.832   8.799  -9.397  1.00  0.00     0.079 A 
ATOM     10  C   UNL     1       0.460   6.181 -10.284  1.00  0.00     0.015 A 
ATOM     11  C   UNL     1       0.781   8.527 -10.764  1.00  0.00     0.126 A 
ATOM     12  C   UNL     1       0.596   7.217 -11.207  1.00  0.00     0.040 A 
ATOM     13  F   UNL     1       0.744   8.041  -7.163  1.00  0.00    -0.206 F 
ATOM     14  F   UNL     1       0.912   9.521 -11.651  1.00  0.00    -0.207 F 
ENDBRANCH   1   7
BRANCH   4  15
ATOM     15  C   UNL     1      -1.830   2.400  -7.398  1.00  0.00     0.339 C 
ATOM     16  O   UNL     1      -2.594   1.994  -6.520  1.00  0.00    -0.246 OA
BRANCH  15  17
ATOM     17  O   UNL     1      -1.897   1.955  -8.682  1.00  0.00    -0.478 OA
ATOM     18  H   UNL     1      -1.111   2.223  -9.203  1.00  0.00     0.297 HD
ENDBRANCH  15  17
ENDBRANCH   4  15
BRANCH   5  19
ATOM     19  O   UNL     1      -0.020   2.291  -5.208  1.00  0.00    -0.507 OA
ATOM     20  H   UNL     1      -0.080   2.676  -4.316  1.00  0.00     0.293 HD
ENDBRANCH   5  19
TORSDOF 4
ENDMDL
MODEL 4
REMARK VINA RESULT:    -5.498      1.243      1.304
REMARK INTER + INTRA:          -7.023
REMARK INTER:                  -6.538
REMARK INTRA:                  -0.486
REMARK UNBOUND:                -0.561
REMARK SMILES O=C(O)c1cc(-c2ccc(F)cc2F)ccc1O
REMARK SMILES IDX 6 1 5 2 15 3 4 4 17 5 16 6 7 7 13 8 12 9 8 10 10 11 9 12
REMARK SMILES IDX 14 13 11 14 2 15 1 16 3 17 18 19
REMARK H PARENT 3 18 18 20
ROOT
ATOM      1  C   UNL     1       0.364   5.986  -8.200  1.00  0.00    -0.014 A 
ATOM      2  C   UNL     1       1.276   6.088  -7.151  1.00  0.00     0.028 A 
ATOM      3  C   UNL     1      -0.543   4.927  -8.235  1.00  0.00     0.013 A 
ATOM      4  C   UNL     1       1.282   5.131  -6.135  1.00  0.00     0.102 A 
ATOM      5  C   UNL     1       0.375   4.072  -6.170  1.00  0.00     0.130 A 
ATOM      6  C   UNL     1      -0.538   3.970  -7.221  1.00  0.00     0.048 A 
ENDROOT
BRANCH   1   7
ATOM      7  C   UNL     1       0.358   6.977  -9.254  1.00  0.00     0.018 A 
ATOM      8  C   UNL     1       1.555   7.556  -9.679  1.00  0.00     0.133 A 
ATOM      9  C   UNL     1       1.545   8.511 -10.695  1.00  0.00     0.079 A 
ATOM     10  C   UNL     1      -0.847   7.353  -9.847  1.00  0.00     0.015 A 
ATOM     11  C   UNL     1       0.339   8.888 -11.287  1.00  0.00     0.126 A 
ATOM     12  C   UNL     1      -0.856   8.308 -10.863  1.00  0.00     0.040 A 
ATOM     13  F   UNL     1       2.722   7.207  -9.118  1.00  0.00    -0.206 F 
ATOM     14  F   UNL     1       0.329   9.805 -12.263  1.00  0.00    -0.207 F 
ENDBRANCH   1   7
BRANCH   4  15
ATOM     15  C   UNL     1       2.243   5.256  -5.048  1.00  0.00     0.339 C 
ATOM     16  O   UNL     1       3.468   5.310  -5.181  1.00  0.00    -0.246 OA
BRANCH  15  17
ATOM     17  O   UNL     1       1.641   5.311  -3.829  1.00  0.00    -0.478 OA
ATOM     18  H   UNL     1       1.867   4.534  -3.275  1.00  0.00     0.297 HD
ENDBRANCH  15  17
ENDBRANCH   4  15
BRANCH   5  19
ATOM     19  O   UNL     1       0.364   3.127  -5.188  1.00  0.00    -0.507 OA
ATOM     20  H   UNL     1      -0.523   3.095  -4.789  1.00  0.00     0.293 HD
ENDBRANCH   5  19
TORSDOF 4
ENDMDL
MODEL 5
REMARK VINA RESULT:    -5.271      4.386      6.693
REMARK INTER + INTRA:          -6.756
REMARK INTER:                  -5.699
REMARK INTRA:                  -1.057
REMARK UNBOUND:                -0.561
REMARK SMILES O=C(O)c1cc(-c2ccc(F)cc2F)ccc1O
REMARK SMILES IDX 6 1 5 2 15 3 4 4 17 5 16 6 7 7 13 8 12 9 8 10 10 11 9 12
REMARK SMILES IDX 14 13 11 14 2 15 1 16 3 17 18 19
REMARK H PARENT 3 18 18 20
ROOT
ATOM      1  C   UNL     1       0.607   7.372  -9.627  1.00  0.00    -0.014 A 
ATOM      2  C   UNL     1      -0.571   7.777 -10.254  1.00  0.00     0.028 A 
ATOM      3  C   UNL     1       1.823   7.953  -9.987  1.00  0.00     0.013 A 
ATOM      4  C   UNL     1      -0.534   8.763 -11.240  1.00  0.00     0.102 A 
ATOM      5  C   UNL     1       0.682   9.344 -11.600  1.00  0.00     0.130 A 
ATOM      6  C   UNL     1       1.861   8.938 -10.973  1.00  0.00     0.048 A 
ENDROOT
BRANCH   1   7
ATOM      7  C   UNL     1       0.569   6.349  -8.605  1.00  0.00     0.018 A 
ATOM      8  C   UNL     1       0.596   6.705  -7.256  1.00  0.00     0.133 A 
ATOM      9  C   UNL     1       0.560   5.715  -6.274  1.00  0.00     0.079 A 
ATOM     10  C   UNL     1       0.505   5.004  -8.971  1.00  0.00     0.015 A 
ATOM     11  C   UNL     1       0.497   4.371  -6.640  1.00  0.00     0.126 A 
ATOM     12  C   UNL     1       0.469   4.016  -7.988  1.00  0.00     0.040 A 
ATOM     13  F   UNL     1       0.660   7.992  -6.888  1.00  0.00    -0.206 F 
ATOM     14  F   UNL     1       0.462   3.420  -5.697  1.00  0.00    -0.207 F 
ENDBRANCH   1   7
BRANCH   4  15
ATOM     15  C   UNL     1      -1.776   9.172 -11.882  1.00  0.00     0.339 C 
ATOM     16  O   UNL     1      -1.859   9.882 -12.887  1.00  0.00    -0.246 OA
BRANCH  15  17
ATOM     17  O   UNL     1      -2.874   8.679 -11.248  1.00  0.00    -0.478 OA
ATOM     18  H   UNL     1      -3.311   7.974 -11.770  1.00  0.00     0.297 HD
ENDBRANCH  15  17
ENDBRANCH   4  15
BRANCH   5  19
ATOM     19  O   UNL     1       0.740  10.309 -12.561  1.00  0.00    -0.507 OA
ATOM     20  H   UNL     1       1.655  10.631 -12.632  1.00  0.00     0.293 HD
ENDBRANCH   5  19
TORSDOF 4
ENDMDL
MODEL 6
REMARK VINA RESULT:    -5.249      4.237      6.507
REMARK INTER + INTRA:          -6.731
REMARK INTER:                  -5.669
REMARK INTRA:                  -1.062
REMARK UNBOUND:                -0.561
REMARK SMILES O=C(O)c1cc(-c2ccc(F)cc2F)ccc1O
REMARK SMILES IDX 6 1 5 2 15 3 4 4 17 5 16 6 7 7 13 8 12 9 8 10 10 11 9 12
REMARK SMILES IDX 14 13 11 14 2 15 1 16 3 17 18 19
REMARK H PARENT 3 18 18 20
ROOT
ATOM      1  C   UNL     1       0.590   7.324  -9.722  1.00  0.00    -0.014 A 
ATOM      2  C   UNL     1       1.824   7.851 -10.102  1.00  0.00     0.028 A 
ATOM      3  C   UNL     1      -0.583   7.806 -10.303  1.00  0.00     0.013 A 
ATOM      4  C   UNL     1       1.886   8.861 -11.063  1.00  0.00     0.102 A 
ATOM      5  C   UNL     1       0.713   9.343 -11.643  1.00  0.00     0.130 A 
ATOM      6  C   UNL     1      -0.522   8.815 -11.263  1.00  0.00     0.048 A 
ENDROOT
BRANCH   1   7
ATOM      7  C   UNL     1       0.525   6.277  -8.725  1.00  0.00     0.018 A 
ATOM      8  C   UNL     1       0.401   4.944  -9.116  1.00  0.00     0.133 A 
ATOM      9  C   UNL     1       0.338   3.938  -8.151  1.00  0.00     0.079 A 
ATOM     10  C   UNL     1       0.588   6.604  -7.371  1.00  0.00     0.015 A 
ATOM     11  C   UNL     1       0.400   4.265  -6.797  1.00  0.00     0.126 A 
ATOM     12  C   UNL     1       0.526   5.599  -6.407  1.00  0.00     0.040 A 
ATOM     13  F   UNL     1       0.336   4.613 -10.413  1.00  0.00    -0.206 F 
ATOM     14  F   UNL     1       0.341   3.300  -5.870  1.00  0.00    -0.207 F 
ENDBRANCH   1   7
BRANCH   4  15
ATOM     15  C   UNL     1       3.184   9.398 -11.446  1.00  0.00     0.339 C 
ATOM     16  O   UNL     1       3.389  10.165 -12.389  1.00  0.00    -0.246 OA
BRANCH  15  17
ATOM     17  O   UNL     1       4.186   8.959 -10.636  1.00  0.00    -0.478 OA
ATOM     18  H   UNL     1       4.053   8.026 -10.365  1.00  0.00     0.297 HD
ENDBRANCH  15  17
ENDBRANCH   4  15
BRANCH   5  19
ATOM     19  O   UNL     1       0.751  10.329 -12.584  1.00  0.00    -0.507 OA
ATOM     20  H   UNL     1       1.417  10.100 -13.256  1.00  0.00     0.293 HD
ENDBRANCH   5  19
TORSDOF 4
ENDMDL
MODEL 7
REMARK VINA RESULT:    -4.606      2.154      3.347
REMARK INTER + INTRA:          -5.974
REMARK INTER:                  -4.995
REMARK INTRA:                  -0.979
REMARK UNBOUND:                -0.561
REMARK SMILES O=C(O)c1cc(-c2ccc(F)cc2F)ccc1O
REMARK SMILES IDX 6 1 5 2 15 3 4 4 17 5 16 6 7 7 13 8 12 9 8 10 10 11 9 12
REMARK SMILES IDX 14 13 11 14 2 15 1 16 3 17 18 19
REMARK H PARENT 3 18 18 20
ROOT
ATOM      1  C   UNL     1       0.541   6.669  -8.728  1.00  0.00    -0.014 A 
ATOM      2  C   UNL     1       0.080   5.428  -9.167  1.00  0.00     0.028 A 
ATOM      3  C   UNL     1       0.547   6.969  -7.366  1.00  0.00     0.013 A 
ATOM      4  C   UNL     1      -0.377   4.487  -8.244  1.00  0.00     0.102 A 
ATOM      5  C   UNL     1      -0.371   4.787  -6.882  1.00  0.00     0.130 A 
ATOM      6  C   UNL     1       0.091   6.029  -6.443  1.00  0.00     0.048 A 
ENDROOT
BRANCH   1   7
ATOM      7  C   UNL     1       1.014   7.646  -9.685  1.00  0.00     0.018 A 
ATOM      8  C   UNL     1       0.115   8.271 -10.550  1.00  0.00     0.133 A 
ATOM      9  C   UNL     1       0.575   9.212 -11.471  1.00  0.00     0.079 A 
ATOM     10  C   UNL     1       2.371   7.963  -9.741  1.00  0.00     0.015 A 
ATOM     11  C   UNL     1       1.931   9.528 -11.528  1.00  0.00     0.126 A 
ATOM     12  C   UNL     1       2.829   8.904 -10.662  1.00  0.00     0.040 A 
ATOM     13  F   UNL     1      -1.192   7.976 -10.511  1.00  0.00    -0.206 F 
ATOM     14  F   UNL     1       2.374  10.432 -12.412  1.00  0.00    -0.207 F 
ENDBRANCH   1   7
BRANCH   4  15
ATOM     15  C   UNL     1      -0.855   3.197  -8.722  1.00  0.00     0.339 C 
ATOM     16  O   UNL     1      -1.560   2.415  -8.080  1.00  0.00    -0.246 OA
BRANCH  15  17
ATOM     17  O   UNL     1      -0.437   2.927  -9.989  1.00  0.00    -0.478 OA
ATOM     18  H   UNL     1      -0.033   3.712 -10.414  1.00  0.00     0.297 HD
ENDBRANCH  15  17
ENDBRANCH   4  15
BRANCH   5  19
ATOM     19  O   UNL     1      -0.813   3.882  -5.963  1.00  0.00    -0.507 OA
ATOM     20  H   UNL     1      -0.054   3.371  -5.631  1.00  0.00     0.293 HD
ENDBRANCH   5  19
TORSDOF 4
ENDMDL
MODEL 8
REMARK VINA RESULT:    -4.086      5.935      8.135
REMARK INTER + INTRA:          -5.363
REMARK INTER:                  -4.346
REMARK INTRA:                  -1.017
REMARK UNBOUND:                -0.561
REMARK SMILES O=C(O)c1cc(-c2ccc(F)cc2F)ccc1O
REMARK SMILES IDX 6 1 5 2 15 3 4 4 17 5 16 6 7 7 13 8 12 9 8 10 10 11 9 12
REMARK SMILES IDX 14 13 11 14 2 15 1 16 3 17 18 19
REMARK H PARENT 3 18 18 20
ROOT
ATOM      1  C   UNL     1       3.101   9.317 -11.608  1.00  0.00    -0.014 A 
ATOM      2  C   UNL     1       2.871  10.652 -11.937  1.00  0.00     0.028 A 
ATOM      3  C   UNL     1       4.309   8.711 -11.956  1.00  0.00     0.013 A 
ATOM      4  C   UNL     1       3.848  11.382 -12.615  1.00  0.00     0.102 A 
ATOM      5  C   UNL     1       5.055  10.776 -12.964  1.00  0.00     0.130 A 
ATOM      6  C   UNL     1       5.285   9.440 -12.634  1.00  0.00     0.048 A 
ENDROOT
BRANCH   1   7
ATOM      7  C   UNL     1       2.088   8.559 -10.906  1.00  0.00     0.018 A 
ATOM      8  C   UNL     1       1.866   8.778  -9.546  1.00  0.00     0.133 A 
ATOM      9  C   UNL     1       0.889   8.045  -8.873  1.00  0.00     0.079 A 
ATOM     10  C   UNL     1       1.333   7.609 -11.592  1.00  0.00     0.015 A 
ATOM     11  C   UNL     1       0.134   7.094  -9.559  1.00  0.00     0.126 A 
ATOM     12  C   UNL     1       0.356   6.876 -10.919  1.00  0.00     0.040 A 
ATOM     13  F   UNL     1       2.585   9.686  -8.871  1.00  0.00    -0.206 F 
ATOM     14  F   UNL     1      -0.805   6.390  -8.913  1.00  0.00    -0.207 F 
ENDBRANCH   1   7
BRANCH   4  15
ATOM     15  C   UNL     1       3.588  12.776 -12.950  1.00  0.00     0.339 C 
ATOM     16  O   UNL     1       4.450  13.627 -13.180  1.00  0.00    -0.246 OA
BRANCH  15  17
ATOM     17  O   UNL     1       2.258  13.060 -12.989  1.00  0.00    -0.478 OA
ATOM     18  H   UNL     1       1.798  12.558 -13.695  1.00  0.00     0.297 HD
ENDBRANCH  15  17
ENDBRANCH   4  15
BRANCH   5  19
ATOM     19  O   UNL     1       6.022  11.472 -13.626  1.00  0.00    -0.507 OA
ATOM     20  H   UNL     1       6.358  10.929 -14.360  1.00  0.00     0.293 HD
ENDBRANCH   5  19
TORSDOF 4
ENDMDL
MODEL 9
REMARK VINA RESULT:    -4.085      6.382      8.704
REMARK INTER + INTRA:          -5.362
REMARK INTER:                  -4.693
REMARK INTRA:                  -0.669
REMARK UNBOUND:                -0.561
REMARK SMILES O=C(O)c1cc(-c2ccc(F)cc2F)ccc1O
REMARK SMILES IDX 6 1 5 2 15 3 4 4 17 5 16 6 7 7 13 8 12 9 8 10 10 11 9 12
REMARK SMILES IDX 14 13 11 14 2 15 1 16 3 17 18 19
REMARK H PARENT 3 18 18 20
ROOT
ATOM      1  C   UNL     1      -1.524   9.676 -12.015  1.00  0.00    -0.014 A 
ATOM      2  C   UNL     1      -1.218   9.985 -13.340  1.00  0.00     0.028 A 
ATOM      3  C   UNL     1      -2.699  10.159 -11.440  1.00  0.00     0.013 A 
ATOM      4  C   UNL     1      -2.087  10.777 -14.090  1.00  0.00     0.102 A 
ATOM      5  C   UNL     1      -3.263  11.260 -13.515  1.00  0.00     0.130 A 
ATOM      6  C   UNL     1      -3.569  10.951 -12.189  1.00  0.00     0.048 A 
ENDROOT
BRANCH   1   7
ATOM      7  C   UNL     1      -0.622   8.856 -11.235  1.00  0.00     0.018 A 
ATOM      8  C   UNL     1       0.753   9.087 -11.283  1.00  0.00     0.133 A 
ATOM      9  C   UNL     1       1.619   8.294 -10.530  1.00  0.00     0.079 A 
ATOM     10  C   UNL     1      -1.130   7.834 -10.434  1.00  0.00     0.015 A 
ATOM     11  C   UNL     1       1.111   7.271  -9.730  1.00  0.00     0.126 A 
ATOM     12  C   UNL     1      -0.264   7.042  -9.682  1.00  0.00     0.040 A 
ATOM     13  F   UNL     1       1.258  10.064 -12.049  1.00  0.00    -0.206 F 
ATOM     14  F   UNL     1       1.941   6.509  -9.006  1.00  0.00    -0.207 F 
ENDBRANCH   1   7
BRANCH   4  15
ATOM     15  C   UNL     1      -1.750  11.087 -15.473  1.00  0.00     0.339 C 
ATOM     16  O   UNL     1      -2.556  11.406 -16.350  1.00  0.00    -0.246 OA
BRANCH  15  17
ATOM     17  O   UNL     1      -0.414  10.991 -15.714  1.00  0.00    -0.478 OA
ATOM     18  H   UNL     1      -0.146  10.071 -15.919  1.00  0.00     0.297 HD
ENDBRANCH  15  17
ENDBRANCH   4  15
BRANCH   5  19
ATOM     19  O   UNL     1      -4.126  12.034 -14.232  1.00  0.00    -0.507 OA
ATOM     20  H   UNL     1      -4.622  11.469 -14.849  1.00  0.00     0.293 HD
ENDBRANCH   5  19
TORSDOF 4
ENDMDL
