MODEL 1
REMARK VINA RESULT:    -6.702      0.000      0.000
REMARK INTER + INTRA:          -8.566
REMARK INTER:                  -7.877
REMARK INTRA:                  -0.689
REMARK UNBOUND:                -0.689
REMARK SMILES O=C(O)c1cc(-c2ccc(F)cc2F)ccc1O
REMARK SMILES IDX 6 1 5 2 15 3 4 4 17 5 16 6 7 7 13 8 12 9 8 10 10 11 9 12
REMARK SMILES IDX 14 13 11 14 2 15 1 16 3 17 18 19
REMARK H PARENT 3 18 18 20
ROOT
ATOM      1  C   UNL     1       4.302   6.365   2.696  1.00  0.00    -0.014 A 
ATOM      2  C   UNL     1       2.965   6.663   2.956  1.00  0.00     0.028 A 
ATOM      3  C   UNL     1       4.628   5.288   1.871  1.00  0.00     0.013 A 
ATOM      4  C   UNL     1       1.953   5.885   2.393  1.00  0.00     0.102 A 
ATOM      5  C   UNL     1       2.279   4.808   1.569  1.00  0.00     0.130 A 
ATOM      6  C   UNL     1       3.617   4.509   1.308  1.00  0.00     0.048 A 
ENDROOT
BRANCH   1   7
ATOM      7  C   UNL     1       5.352   7.171   3.281  1.00  0.00     0.018 A 
ATOM      8  C   UNL     1       5.330   8.559   3.140  1.00  0.00     0.133 A 
ATOM      9  C   UNL     1       6.344   9.332   3.705  1.00  0.00     0.079 A 
ATOM     10  C   UNL     1       6.386   6.557   3.987  1.00  0.00     0.015 A 
ATOM     11  C   UNL     1       7.379   8.718   4.411  1.00  0.00     0.126 A 
ATOM     12  C   UNL     1       7.399   7.331   4.552  1.00  0.00     0.040 A 
ATOM     13  F   UNL     1       4.345   9.164   2.462  1.00  0.00    -0.206 F 
ATOM     14  F   UNL     1       8.352   9.460   4.954  1.00  0.00    -0.207 F 
ENDBRANCH   1   7
BRANCH   4  15
ATOM     15  C   UNL     1       0.563   6.213   2.677  1.00  0.00     0.339 C 
ATOM     16  O   UNL     1      -0.293   5.417   3.070  1.00  0.00    -0.246 OA
BRANCH  15  17
ATOM     17  O   UNL     1       0.287   7.529   2.463  1.00  0.00    -0.478 OA
ATOM     18  H   UNL     1       1.057   8.101   2.667  1.00  0.00     0.297 HD
ENDBRANCH  15  17
ENDBRANCH   4  15
BRANCH   5  19
ATOM     19  O   UNL     1       1.306   4.036   1.008  1.00  0.00    -0.507 OA
ATOM     20  H   UNL     1       1.152   4.333   0.094  1.00  0.00     0.293 HD
ENDBRANCH   5  19
TORSDOF 4
ENDMDL
MODEL 2
REMARK VINA RESULT:    -6.699      1.902      3.377
REMARK INTER + INTRA:          -8.563
REMARK INTER:                  -7.886
REMARK INTRA:                  -0.677
REMARK UNBOUND:                -0.689
REMARK SMILES O=C(O)c1cc(-c2ccc(F)cc2F)ccc1O
REMARK SMILES IDX 6 1 5 2 15 3 4 4 17 5 16 6 7 7 13 8 12 9 8 10 10 11 9 12
REMARK SMILES IDX 14 13 11 14 2 15 1 16 3 17 18 19
REMARK H PARENT 3 18 18 20
ROOT
ATOM      1  C   UNL     1       4.503   5.900   2.953  1.00  0.00    -0.014 A 
ATOM      2  C   UNL     1       4.953   4.794   2.234  1.00  0.00     0.028 A 
ATOM      3  C   UNL     1       3.137   6.081   3.173  1.00  0.00     0.013 A 
ATOM      4  C   UNL     1       4.038   3.868   1.733  1.00  0.00     0.102 A 
ATOM      5  C   UNL     1       2.672   4.048   1.953  1.00  0.00     0.130 A 
ATOM      6  C   UNL     1       2.222   5.156   2.673  1.00  0.00     0.048 A 
ENDROOT
BRANCH   1   7
ATOM      7  C   UNL     1       5.452   6.862   3.472  1.00  0.00     0.018 A 
ATOM      8  C   UNL     1       6.555   6.431   4.209  1.00  0.00     0.133 A 
ATOM      9  C   UNL     1       7.467   7.362   4.707  1.00  0.00     0.079 A 
ATOM     10  C   UNL     1       5.262   8.223   3.232  1.00  0.00     0.015 A 
ATOM     11  C   UNL     1       7.276   8.722   4.468  1.00  0.00     0.126 A 
ATOM     12  C   UNL     1       6.174   9.152   3.729  1.00  0.00     0.040 A 
ATOM     13  F   UNL     1       6.750   5.127   4.451  1.00  0.00    -0.206 F 
ATOM     14  F   UNL     1       8.152   9.616   4.946  1.00  0.00    -0.207 F 
ENDBRANCH   1   7
BRANCH   4  15
ATOM     15  C   UNL     1       4.528   2.719   0.984  1.00  0.00     0.339 C 
ATOM     16  O   UNL     1       4.096   2.341  -0.107  1.00  0.00    -0.246 OA
BRANCH  15  17
ATOM     17  O   UNL     1       5.545   2.079   1.624  1.00  0.00    -0.478 OA
ATOM     18  H   UNL     1       5.708   2.453   2.515  1.00  0.00     0.297 HD
ENDBRANCH  15  17
ENDBRANCH   4  15
BRANCH   5  19
ATOM     19  O   UNL     1       1.762   3.155   1.473  1.00  0.00    -0.507 OA
ATOM     20  H   UNL     1       2.231   2.368   1.145  1.00  0.00     0.293 HD
ENDBRANCH   5  19
TORSDOF 4
ENDMDL
MODEL 3
REMARK VINA RESULT:    -6.678      1.557      2.944
REMARK INTER + INTRA:          -8.538
REMARK INTER:                  -7.844
REMARK INTRA:                  -0.694
REMARK UNBOUND:                -0.689
REMARK SMILES O=C(O)c1cc(-c2ccc(F)cc2F)ccc1O
REMARK SMILES IDX 6 1 5 2 15 3 4 4 17 5 16 6 7 7 13 8 12 9 8 10 10 11 9 12
REMARK SMILES IDX 14 13 11 14 2 15 1 16 3 17 18 19
REMARK H PARENT 3 18 18 20
ROOT
ATOM      1  C   UNL     1       4.495   5.919   2.970  1.00  0.00    -0.014 A 
ATOM      2  C   UNL     1       4.948   4.818   2.243  1.00  0.00     0.028 A 
ATOM      3  C   UNL     1       3.131   6.084   3.209  1.00  0.00     0.013 A 
ATOM      4  C   UNL     1       4.036   3.882   1.755  1.00  0.00     0.102 A 
ATOM      5  C   UNL     1       2.672   4.047   1.994  1.00  0.00     0.130 A 
ATOM      6  C   UNL     1       2.219   5.148   2.722  1.00  0.00     0.048 A 
ENDROOT
BRANCH   1   7
ATOM      7  C   UNL     1       5.440   6.891   3.475  1.00  0.00     0.018 A 
ATOM      8  C   UNL     1       5.266   8.247   3.197  1.00  0.00     0.133 A 
ATOM      9  C   UNL     1       6.180   9.182   3.686  1.00  0.00     0.079 A 
ATOM     10  C   UNL     1       6.525   6.470   4.243  1.00  0.00     0.015 A 
ATOM     11  C   UNL     1       7.266   8.760   4.453  1.00  0.00     0.126 A 
ATOM     12  C   UNL     1       7.438   7.405   4.732  1.00  0.00     0.040 A 
ATOM     13  F   UNL     1       4.230   8.668   2.458  1.00  0.00    -0.206 F 
ATOM     14  F   UNL     1       8.143   9.656   4.923  1.00  0.00    -0.207 F 
ENDBRANCH   1   7
BRANCH   4  15
ATOM     15  C   UNL     1       4.528   2.739   0.998  1.00  0.00     0.339 C 
ATOM     16  O   UNL     1       4.100   2.371  -0.098  1.00  0.00    -0.246 OA
BRANCH  15  17
ATOM     17  O   UNL     1       5.542   2.093   1.636  1.00  0.00    -0.478 OA
ATOM     18  H   UNL     1       6.233   1.790   1.010  1.00  0.00     0.297 HD
ENDBRANCH  15  17
ENDBRANCH   4  15
BRANCH   5  19
ATOM     19  O   UNL     1       1.765   3.143   1.527  1.00  0.00    -0.507 OA
ATOM     20  H   UNL     1       2.196   2.573   0.866  1.00  0.00     0.293 HD
ENDBRANCH   5  19
TORSDOF 4
ENDMDL
MODEL 4
REMARK VINA RESULT:    -6.676      1.129      1.609
REMARK INTER + INTRA:          -8.536
REMARK INTER:                  -7.840
REMARK INTRA:                  -0.696
REMARK UNBOUND:                -0.689
REMARK SMILES O=C(O)c1cc(-c2ccc(F)cc2F)ccc1O
REMARK SMILES IDX 6 1 5 2 15 3 4 4 17 5 16 6 7 7 13 8 12 9 8 10 10 11 9 12
REMARK SMILES IDX 14 13 11 14 2 15 1 16 3 17 18 19
REMARK H PARENT 3 18 18 20
ROOT
ATOM      1  C   UNL     1       4.300   6.307   2.711  1.00  0.00    -0.014 A 
ATOM      2  C   UNL     1       2.966   6.624   2.961  1.00  0.00     0.028 A 
ATOM      3  C   UNL     1       4.618   5.218   1.900  1.00  0.00     0.013 A 
ATOM      4  C   UNL     1       1.948   5.853   2.399  1.00  0.00     0.102 A 
ATOM      5  C   UNL     1       2.266   4.764   1.588  1.00  0.00     0.130 A 
ATOM      6  C   UNL     1       3.601   4.446   1.338  1.00  0.00     0.048 A 
ENDROOT
BRANCH   1   7
ATOM      7  C   UNL     1       5.357   7.106   3.294  1.00  0.00     0.018 A 
ATOM      8  C   UNL     1       6.371   6.495   4.032  1.00  0.00     0.133 A 
ATOM      9  C   UNL     1       7.388   7.269   4.592  1.00  0.00     0.079 A 
ATOM     10  C   UNL     1       5.359   8.489   3.117  1.00  0.00     0.015 A 
ATOM     11  C   UNL     1       7.390   8.652   4.416  1.00  0.00     0.126 A 
ATOM     12  C   UNL     1       6.375   9.262   3.677  1.00  0.00     0.040 A 
ATOM     13  F   UNL     1       6.382   5.167   4.214  1.00  0.00    -0.206 F 
ATOM     14  F   UNL     1       8.365   9.395   4.953  1.00  0.00    -0.207 F 
ENDBRANCH   1   7
BRANCH   4  15
ATOM     15  C   UNL     1       0.560   6.201   2.672  1.00  0.00     0.339 C 
ATOM     16  O   UNL     1      -0.306   5.420   3.072  1.00  0.00    -0.246 OA
BRANCH  15  17
ATOM     17  O   UNL     1       0.301   7.516   2.438  1.00  0.00    -0.478 OA
ATOM     18  H   UNL     1       1.086   7.986   2.086  1.00  0.00     0.297 HD
ENDBRANCH  15  17
ENDBRANCH   4  15
BRANCH   5  19
ATOM     19  O   UNL     1       1.286   3.998   1.029  1.00  0.00    -0.507 OA
ATOM     20  H   UNL     1       0.424   4.280   1.381  1.00  0.00     0.293 HD
ENDBRANCH   5  19
TORSDOF 4
ENDMDL
MODEL 5
REMARK VINA RESULT:    -5.224      1.242      1.498
REMARK INTER + INTRA:          -6.829
REMARK INTER:                  -6.069
REMARK INTRA:                  -0.760
REMARK UNBOUND:                -0.689
REMARK SMILES O=C(O)c1cc(-c2ccc(F)cc2F)ccc1O
REMARK SMILES IDX 6 1 5 2 15 3 4 4 17 5 16 6 7 7 13 8 12 9 8 10 10 11 9 12
REMARK SMILES IDX 14 13 11 14 2 15 1 16 3 17 18 19
REMARK H PARENT 3 18 18 20
ROOT
ATOM      1  C   UNL     1       4.783   6.268   3.165  1.00  0.00    -0.014 A 
ATOM      2  C   UNL     1       3.454   6.683   3.090  1.00  0.00     0.028 A 
ATOM      3  C   UNL     1       5.130   4.968   2.798  1.00  0.00     0.013 A 
ATOM      4  C   UNL     1       2.470   5.797   2.649  1.00  0.00     0.102 A 
ATOM      5  C   UNL     1       2.817   4.497   2.282  1.00  0.00     0.130 A 
ATOM      6  C   UNL     1       4.147   4.082   2.356  1.00  0.00     0.048 A 
ENDROOT
BRANCH   1   7
ATOM      7  C   UNL     1       5.804   7.185   3.624  1.00  0.00     0.018 A 
ATOM      8  C   UNL     1       5.626   7.893   4.814  1.00  0.00     0.133 A 
ATOM      9  C   UNL     1       6.612   8.777   5.253  1.00  0.00     0.079 A 
ATOM     10  C   UNL     1       6.967   7.360   2.876  1.00  0.00     0.015 A 
ATOM     11  C   UNL     1       7.775   8.952   4.504  1.00  0.00     0.126 A 
ATOM     12  C   UNL     1       7.953   8.243   3.315  1.00  0.00     0.040 A 
ATOM     13  F   UNL     1       4.512   7.738   5.544  1.00  0.00    -0.206 F 
ATOM     14  F   UNL     1       8.722   9.800   4.924  1.00  0.00    -0.207 F 
ENDBRANCH   1   7
BRANCH   4  15
ATOM     15  C   UNL     1       1.088   6.250   2.578  1.00  0.00     0.339 C 
ATOM     16  O   UNL     1       0.720   7.362   2.191  1.00  0.00    -0.246 OA
BRANCH  15  17
ATOM     17  O   UNL     1       0.209   5.297   2.991  1.00  0.00    -0.478 OA
ATOM     18  H   UNL     1       0.516   4.846   3.806  1.00  0.00     0.297 HD
ENDBRANCH  15  17
ENDBRANCH   4  15
BRANCH   5  19
ATOM     19  O   UNL     1       1.871   3.617   1.847  1.00  0.00    -0.507 OA
ATOM     20  H   UNL     1       2.196   3.172   1.045  1.00  0.00     0.293 HD
ENDBRANCH   5  19
TORSDOF 4
ENDMDL
MODEL 6
REMARK VINA RESULT:    -5.162      4.146      6.413
REMARK INTER + INTRA:          -6.756
REMARK INTER:                  -5.676
REMARK INTRA:                  -1.080
REMARK UNBOUND:                -0.689
REMARK SMILES O=C(O)c1cc(-c2ccc(F)cc2F)ccc1O
REMARK SMILES IDX 6 1 5 2 15 3 4 4 17 5 16 6 7 7 13 8 12 9 8 10 10 11 9 12
REMARK SMILES IDX 14 13 11 14 2 15 1 16 3 17 18 19
REMARK H PARENT 3 18 18 20
ROOT
ATOM      1  C   UNL     1       6.292   7.494   3.735  1.00  0.00    -0.014 A 
ATOM      2  C   UNL     1       6.008   8.203   4.902  1.00  0.00     0.028 A 
ATOM      3  C   UNL     1       7.499   7.704   3.068  1.00  0.00     0.013 A 
ATOM      4  C   UNL     1       6.930   9.123   5.402  1.00  0.00     0.102 A 
ATOM      5  C   UNL     1       8.137   9.332   4.735  1.00  0.00     0.130 A 
ATOM      6  C   UNL     1       8.422   8.623   3.567  1.00  0.00     0.048 A 
ENDROOT
BRANCH   1   7
ATOM      7  C   UNL     1       5.335   6.542   3.215  1.00  0.00     0.018 A 
ATOM      8  C   UNL     1       5.429   5.194   3.563  1.00  0.00     0.133 A 
ATOM      9  C   UNL     1       4.504   4.278   3.059  1.00  0.00     0.079 A 
ATOM     10  C   UNL     1       4.317   6.974   2.365  1.00  0.00     0.015 A 
ATOM     11  C   UNL     1       3.487   4.710   2.209  1.00  0.00     0.126 A 
ATOM     12  C   UNL     1       3.393   6.058   1.863  1.00  0.00     0.040 A 
ATOM     13  F   UNL     1       6.403   4.761   4.377  1.00  0.00    -0.206 F 
ATOM     14  F   UNL     1       2.599   3.832   1.725  1.00  0.00    -0.207 F 
ENDBRANCH   1   7
BRANCH   4  15
ATOM     15  C   UNL     1       6.615   9.853   6.622  1.00  0.00     0.339 C 
ATOM     16  O   UNL     1       7.222  10.842   7.039  1.00  0.00    -0.246 OA
BRANCH  15  17
ATOM     17  O   UNL     1       5.548   9.324   7.281  1.00  0.00    -0.478 OA
ATOM     18  H   UNL     1       5.787   8.503   7.762  1.00  0.00     0.297 HD
ENDBRANCH  15  17
ENDBRANCH   4  15
BRANCH   5  19
ATOM     19  O   UNL     1       9.052  10.226   5.207  1.00  0.00    -0.507 OA
ATOM     20  H   UNL     1       9.643   9.773   5.834  1.00  0.00     0.293 HD
ENDBRANCH   5  19
TORSDOF 4
ENDMDL
MODEL 7
REMARK VINA RESULT:    -5.151      4.361      6.649
REMARK INTER + INTRA:          -6.744
REMARK INTER:                  -5.669
REMARK INTRA:                  -1.075
REMARK UNBOUND:                -0.689
REMARK SMILES O=C(O)c1cc(-c2ccc(F)cc2F)ccc1O
REMARK SMILES IDX 6 1 5 2 15 3 4 4 17 5 16 6 7 7 13 8 12 9 8 10 10 11 9 12
REMARK SMILES IDX 14 13 11 14 2 15 1 16 3 17 18 19
REMARK H PARENT 3 18 18 20
ROOT
ATOM      1  C   UNL     1       6.119   7.699   3.780  1.00  0.00    -0.014 A 
ATOM      2  C   UNL     1       7.315   7.795   3.070  1.00  0.00     0.028 A 
ATOM      3  C   UNL     1       5.945   8.430   4.955  1.00  0.00     0.013 A 
ATOM      4  C   UNL     1       8.338   8.623   3.534  1.00  0.00     0.102 A 
ATOM      5  C   UNL     1       8.164   9.355   4.708  1.00  0.00     0.130 A 
ATOM      6  C   UNL     1       6.966   9.258   5.419  1.00  0.00     0.048 A 
ENDROOT
BRANCH   1   7
ATOM      7  C   UNL     1       5.058   6.839   3.301  1.00  0.00     0.018 A 
ATOM      8  C   UNL     1       4.036   7.363   2.509  1.00  0.00     0.133 A 
ATOM      9  C   UNL     1       3.015   6.531   2.049  1.00  0.00     0.079 A 
ATOM     10  C   UNL     1       5.061   5.484   3.630  1.00  0.00     0.015 A 
ATOM     11  C   UNL     1       3.017   5.176   2.379  1.00  0.00     0.126 A 
ATOM     12  C   UNL     1       4.040   4.653   3.170  1.00  0.00     0.040 A 
ATOM     13  F   UNL     1       4.018   8.664   2.186  1.00  0.00    -0.206 F 
ATOM     14  F   UNL     1       2.038   4.377   1.938  1.00  0.00    -0.207 F 
ENDBRANCH   1   7
BRANCH   4  15
ATOM     15  C   UNL     1       9.579   8.709   2.777  1.00  0.00     0.339 C 
ATOM     16  O   UNL     1      10.641   9.172   3.199  1.00  0.00    -0.246 OA
BRANCH  15  17
ATOM     17  O   UNL     1       9.453   8.213   1.516  1.00  0.00    -0.478 OA
ATOM     18  H   UNL     1       8.628   8.519   1.085  1.00  0.00     0.297 HD
ENDBRANCH  15  17
ENDBRANCH   4  15
BRANCH   5  19
ATOM     19  O   UNL     1       9.150  10.170   5.178  1.00  0.00    -0.507 OA
ATOM     20  H   UNL     1      10.014   9.766   4.984  1.00  0.00     0.293 HD
ENDBRANCH   5  19
TORSDOF 4
ENDMDL
MODEL 8
REMARK VINA RESULT:    -5.144      3.989      6.218
REMARK INTER + INTRA:          -6.735
REMARK INTER:                  -5.652
REMARK INTRA:                  -1.083
REMARK UNBOUND:                -0.689
REMARK SMILES O=C(O)c1cc(-c2ccc(F)cc2F)ccc1O
REMARK SMILES IDX 6 1 5 2 15 3 4 4 17 5 16 6 7 7 13 8 12 9 8 10 10 11 9 12
REMARK SMILES IDX 14 13 11 14 2 15 1 16 3 17 18 19
REMARK H PARENT 3 18 18 20
ROOT
ATOM      1  C   UNL     1       5.987   7.691   3.765  1.00  0.00    -0.014 A 
ATOM      2  C   UNL     1       5.851   8.407   4.954  1.00  0.00     0.028 A 
ATOM      3  C   UNL     1       7.167   7.780   3.028  1.00  0.00     0.013 A 
ATOM      4  C   UNL     1       6.897   9.213   5.406  1.00  0.00     0.102 A 
ATOM      5  C   UNL     1       8.077   9.302   4.668  1.00  0.00     0.130 A 
ATOM      6  C   UNL     1       8.212   8.585   3.478  1.00  0.00     0.048 A 
ENDROOT
BRANCH   1   7
ATOM      7  C   UNL     1       4.902   6.855   3.296  1.00  0.00     0.018 A 
ATOM      8  C   UNL     1       3.899   7.397   2.492  1.00  0.00     0.133 A 
ATOM      9  C   UNL     1       2.855   6.588   2.041  1.00  0.00     0.079 A 
ATOM     10  C   UNL     1       4.863   5.506   3.647  1.00  0.00     0.015 A 
ATOM     11  C   UNL     1       2.815   5.239   2.393  1.00  0.00     0.126 A 
ATOM     12  C   UNL     1       3.820   4.698   3.196  1.00  0.00     0.040 A 
ATOM     13  F   UNL     1       3.920   8.692   2.147  1.00  0.00    -0.206 F 
ATOM     14  F   UNL     1       1.814   4.462   1.961  1.00  0.00    -0.207 F 
ENDBRANCH   1   7
BRANCH   4  15
ATOM     15  C   UNL     1       6.736   9.953   6.650  1.00  0.00     0.339 C 
ATOM     16  O   UNL     1       7.492  10.837   7.057  1.00  0.00    -0.246 OA
BRANCH  15  17
ATOM     17  O   UNL     1       5.633   9.563   7.346  1.00  0.00    -0.478 OA
ATOM     18  H   UNL     1       4.814   9.964   6.985  1.00  0.00     0.297 HD
ENDBRANCH  15  17
ENDBRANCH   4  15
BRANCH   5  19
ATOM     19  O   UNL     1       9.110  10.084   5.092  1.00  0.00    -0.507 OA
ATOM     20  H   UNL     1       9.439  10.609   4.343  1.00  0.00     0.293 HD
ENDBRANCH   5  19
TORSDOF 4
ENDMDL
MODEL 9
REMARK VINA RESULT:    -5.124      1.922      3.077
REMARK INTER + INTRA:          -6.712
REMARK INTER:                  -5.838
REMARK INTRA:                  -0.874
REMARK UNBOUND:                -0.689
REMARK SMILES O=C(O)c1cc(-c2ccc(F)cc2F)ccc1O
REMARK SMILES IDX 6 1 5 2 15 3 4 4 17 5 16 6 7 7 13 8 12 9 8 10 10 11 9 12
REMARK SMILES IDX 14 13 11 14 2 15 1 16 3 17 18 19
REMARK H PARENT 3 18 18 20
ROOT
ATOM      1  C   UNL     1       5.011   6.781   2.805  1.00  0.00    -0.014 A 
ATOM      2  C   UNL     1       5.319   5.450   2.528  1.00  0.00     0.028 A 
ATOM      3  C   UNL     1       3.777   7.305   2.422  1.00  0.00     0.013 A 
ATOM      4  C   UNL     1       4.393   4.642   1.868  1.00  0.00     0.102 A 
ATOM      5  C   UNL     1       3.159   5.166   1.485  1.00  0.00     0.130 A 
ATOM      6  C   UNL     1       2.850   6.498   1.762  1.00  0.00     0.048 A 
ENDROOT
BRANCH   1   7
ATOM      7  C   UNL     1       5.972   7.620   3.489  1.00  0.00     0.018 A 
ATOM      8  C   UNL     1       7.232   7.839   2.932  1.00  0.00     0.133 A 
ATOM      9  C   UNL     1       8.155   8.648   3.595  1.00  0.00     0.079 A 
ATOM     10  C   UNL     1       5.634   8.212   4.706  1.00  0.00     0.015 A 
ATOM     11  C   UNL     1       7.818   9.239   4.812  1.00  0.00     0.126 A 
ATOM     12  C   UNL     1       6.557   9.021   5.367  1.00  0.00     0.040 A 
ATOM     13  F   UNL     1       7.573   7.276   1.764  1.00  0.00    -0.206 F 
ATOM     14  F   UNL     1       8.704  10.016   5.448  1.00  0.00    -0.207 F 
ENDBRANCH   1   7
BRANCH   4  15
ATOM     15  C   UNL     1       4.734   3.253   1.589  1.00  0.00     0.339 C 
ATOM     16  O   UNL     1       5.364   2.508   2.342  1.00  0.00    -0.246 OA
BRANCH  15  17
ATOM     17  O   UNL     1       4.275   2.841   0.376  1.00  0.00    -0.478 OA
ATOM     18  H   UNL     1       4.914   2.248  -0.073  1.00  0.00     0.297 HD
ENDBRANCH  15  17
ENDBRANCH   4  15
BRANCH   5  19
ATOM     19  O   UNL     1       2.240   4.393   0.839  1.00  0.00    -0.507 OA
ATOM     20  H   UNL     1       1.617   4.029   1.492  1.00  0.00     0.293 HD
ENDBRANCH   5  19
TORSDOF 4
ENDMDL
