MODEL 1
REMARK VINA RESULT:    -5.442      0.000      0.000
REMARK INTER + INTRA:          -7.420
REMARK INTER:                  -6.714
REMARK INTRA:                  -0.706
REMARK UNBOUND:                -0.706
REMARK SMILES Cc1ccc(C(=O)c2cc(O)c(O)c([N+](=O)[O-])c2)cc1
REMARK SMILES IDX 8 1 18 2 9 3 14 4 10 5 12 6 6 7 7 8 5 9 4 10 19 11 3 12
REMARK SMILES IDX 20 13 2 14 1 15 15 16 17 17 16 18 11 19 13 21
REMARK H PARENT 11 20 13 22
ROOT
ATOM      1  C   UNL     1       3.095   6.503   1.788  1.00  0.00     0.033 A 
ATOM      2  C   UNL     1       3.754   5.485   1.137  1.00  0.00     0.102 A 
ATOM      3  C   UNL     1       1.879   6.330   2.404  1.00  0.00     0.063 A 
ATOM      4  C   UNL     1       3.161   4.223   1.101  1.00  0.00     0.315 A 
ATOM      5  C   UNL     1       1.285   5.068   2.368  1.00  0.00     0.165 A 
ATOM      6  C   UNL     1       1.927   4.014   1.717  1.00  0.00     0.237 A 
ENDROOT
BRANCH   1   7
ATOM      7  C   UNL     1       3.730   7.855   1.826  1.00  0.00     0.193 C 
ATOM      8  O   UNL     1       3.384   8.670   0.958  1.00  0.00    -0.289 OA
BRANCH   7   9
ATOM      9  C   UNL     1       4.715   8.226   2.830  1.00  0.00     0.023 A 
ATOM     10  C   UNL     1       4.926   9.570   3.136  1.00  0.00     0.012 A 
ATOM     11  C   UNL     1       5.448   7.238   3.486  1.00  0.00     0.012 A 
ATOM     12  C   UNL     1       5.870   9.926   4.099  1.00  0.00     0.004 A 
ATOM     13  C   UNL     1       6.393   7.593   4.450  1.00  0.00     0.004 A 
ATOM     14  C   UNL     1       6.604   8.938   4.756  1.00  0.00    -0.051 A 
ATOM     15  C   UNL     1       7.614   9.318   5.784  1.00  0.00     0.044 C 
ENDBRANCH   7   9
ENDBRANCH   1   7
BRANCH   4  16
ATOM     16  N   UNL     1       3.830   3.161   0.433  1.00  0.00     0.066 N 
ATOM     17  O   UNL     1       3.223   2.536  -0.470  1.00  0.00    -0.258 OA
ATOM     18  O   UNL     1       5.006   2.882   0.764  1.00  0.00    -0.258 OA
ENDBRANCH   4  16
BRANCH   5  19
ATOM     19  O   UNL     1       0.080   4.878   2.974  1.00  0.00    -0.504 OA
ATOM     20  H   UNL     1      -0.079   5.592   3.614  1.00  0.00     0.293 HD
ENDBRANCH   5  19
BRANCH   6  21
ATOM     21  O   UNL     1       1.337   2.784   1.689  1.00  0.00    -0.500 OA
ATOM     22  H   UNL     1       0.847   2.676   0.859  1.00  0.00     0.294 HD
ENDBRANCH   6  21
TORSDOF 5
ENDMDL
MODEL 2
REMARK VINA RESULT:    -5.434      2.050      3.611
REMARK INTER + INTRA:          -7.410
REMARK INTER:                  -6.709
REMARK INTRA:                  -0.701
REMARK UNBOUND:                -0.706
REMARK SMILES Cc1ccc(C(=O)c2cc(O)c(O)c([N+](=O)[O-])c2)cc1
REMARK SMILES IDX 8 1 18 2 9 3 14 4 10 5 12 6 6 7 7 8 5 9 4 10 19 11 3 12
REMARK SMILES IDX 20 13 2 14 1 15 15 16 17 17 16 18 11 19 13 21
REMARK H PARENT 11 20 13 22
ROOT
ATOM      1  C   UNL     1       4.226   4.430   3.112  1.00  0.00     0.033 A 
ATOM      2  C   UNL     1       2.997   4.946   3.452  1.00  0.00     0.102 A 
ATOM      3  C   UNL     1       4.444   3.721   1.955  1.00  0.00     0.063 A 
ATOM      4  C   UNL     1       1.925   4.741   2.583  1.00  0.00     0.315 A 
ATOM      5  C   UNL     1       3.371   3.516   1.086  1.00  0.00     0.165 A 
ATOM      6  C   UNL     1       2.111   4.027   1.401  1.00  0.00     0.237 A 
ENDROOT
BRANCH   1   7
ATOM      7  C   UNL     1       5.375   4.648   4.042  1.00  0.00     0.193 C 
ATOM      8  O   UNL     1       5.624   3.749   4.860  1.00  0.00    -0.289 OA
BRANCH   7   9
ATOM      9  C   UNL     1       6.184   5.856   4.012  1.00  0.00     0.023 A 
ATOM     10  C   UNL     1       5.649   7.041   3.508  1.00  0.00     0.012 A 
ATOM     11  C   UNL     1       7.495   5.829   4.487  1.00  0.00     0.012 A 
ATOM     12  C   UNL     1       6.425   8.200   3.479  1.00  0.00     0.004 A 
ATOM     13  C   UNL     1       8.272   6.988   4.459  1.00  0.00     0.004 A 
ATOM     14  C   UNL     1       7.737   8.173   3.955  1.00  0.00    -0.051 A 
ATOM     15  C   UNL     1       8.566   9.411   3.922  1.00  0.00     0.044 C 
ENDBRANCH   7   9
ENDBRANCH   1   7
BRANCH   4  16
ATOM     16  N   UNL     1       0.648   5.269   2.921  1.00  0.00     0.066 N 
ATOM     17  O   UNL     1       0.543   6.497   3.155  1.00  0.00    -0.258 OA
ATOM     18  O   UNL     1      -0.334   4.493   2.974  1.00  0.00    -0.258 OA
ENDBRANCH   4  16
BRANCH   5  19
ATOM     19  O   UNL     1       3.568   2.816  -0.066  1.00  0.00    -0.504 OA
ATOM     20  H   UNL     1       3.746   3.433  -0.795  1.00  0.00     0.293 HD
ENDBRANCH   5  19
BRANCH   6  21
ATOM     21  O   UNL     1       1.070   3.820   0.543  1.00  0.00    -0.500 OA
ATOM     22  H   UNL     1       0.404   3.258   0.968  1.00  0.00     0.294 HD
ENDBRANCH   6  21
TORSDOF 5
ENDMDL
MODEL 3
REMARK VINA RESULT:    -5.377      1.715      3.185
REMARK INTER + INTRA:          -7.340
REMARK INTER:                  -6.550
REMARK INTRA:                  -0.789
REMARK UNBOUND:                -0.706
REMARK SMILES Cc1ccc(C(=O)c2cc(O)c(O)c([N+](=O)[O-])c2)cc1
REMARK SMILES IDX 8 1 18 2 9 3 14 4 10 5 12 6 6 7 7 8 5 9 4 10 19 11 3 12
REMARK SMILES IDX 20 13 2 14 1 15 15 16 17 17 16 18 11 19 13 21
REMARK H PARENT 11 20 13 22
ROOT
ATOM      1  C   UNL     1       4.533   5.880   1.850  1.00  0.00     0.033 A 
ATOM      2  C   UNL     1       3.358   6.366   2.374  1.00  0.00     0.102 A 
ATOM      3  C   UNL     1       4.604   4.704   1.141  1.00  0.00     0.063 A 
ATOM      4  C   UNL     1       2.186   5.635   2.177  1.00  0.00     0.315 A 
ATOM      5  C   UNL     1       3.432   3.972   0.944  1.00  0.00     0.165 A 
ATOM      6  C   UNL     1       2.223   4.438   1.462  1.00  0.00     0.237 A 
ENDROOT
BRANCH   1   7
ATOM      7  C   UNL     1       5.788   6.663   2.061  1.00  0.00     0.193 C 
ATOM      8  O   UNL     1       6.654   6.599   1.176  1.00  0.00    -0.289 OA
BRANCH   7   9
ATOM      9  C   UNL     1       6.010   7.475   3.247  1.00  0.00     0.023 A 
ATOM     10  C   UNL     1       6.675   6.935   4.348  1.00  0.00     0.012 A 
ATOM     11  C   UNL     1       5.558   8.794   3.284  1.00  0.00     0.012 A 
ATOM     12  C   UNL     1       6.888   7.714   5.484  1.00  0.00     0.004 A 
ATOM     13  C   UNL     1       5.771   9.574   4.421  1.00  0.00     0.004 A 
ATOM     14  C   UNL     1       6.436   9.034   5.522  1.00  0.00    -0.051 A 
ATOM     15  C   UNL     1       6.663   9.866   6.738  1.00  0.00     0.044 C 
ENDBRANCH   7   9
ENDBRANCH   1   7
BRANCH   4  16
ATOM     16  N   UNL     1       0.964   6.126   2.712  1.00  0.00     0.066 N 
ATOM     17  O   UNL     1       0.802   7.365   2.816  1.00  0.00    -0.258 OA
ATOM     18  O   UNL     1       0.084   5.305   3.063  1.00  0.00    -0.258 OA
ENDBRANCH   4  16
BRANCH   5  19
ATOM     19  O   UNL     1       3.483   2.805   0.243  1.00  0.00    -0.504 OA
ATOM     20  H   UNL     1       3.564   2.998  -0.705  1.00  0.00     0.293 HD
ENDBRANCH   5  19
BRANCH   6  21
ATOM     21  O   UNL     1       1.084   3.714   1.262  1.00  0.00    -0.500 OA
ATOM     22  H   UNL     1       1.059   2.968   1.881  1.00  0.00     0.294 HD
ENDBRANCH   6  21
TORSDOF 5
ENDMDL
MODEL 4
REMARK VINA RESULT:    -5.371      1.815      2.085
REMARK INTER + INTRA:          -7.333
REMARK INTER:                  -6.571
REMARK INTRA:                  -0.762
REMARK UNBOUND:                -0.706
REMARK SMILES Cc1ccc(C(=O)c2cc(O)c(O)c([N+](=O)[O-])c2)cc1
REMARK SMILES IDX 8 1 18 2 9 3 14 4 10 5 12 6 6 7 7 8 5 9 4 10 19 11 3 12
REMARK SMILES IDX 20 13 2 14 1 15 15 16 17 17 16 18 11 19 13 21
REMARK H PARENT 11 20 13 22
ROOT
ATOM      1  C   UNL     1       3.695   5.791   3.535  1.00  0.00     0.033 A 
ATOM      2  C   UNL     1       4.430   4.914   2.771  1.00  0.00     0.102 A 
ATOM      3  C   UNL     1       2.321   5.816   3.528  1.00  0.00     0.063 A 
ATOM      4  C   UNL     1       3.750   4.010   1.954  1.00  0.00     0.315 A 
ATOM      5  C   UNL     1       1.641   4.913   2.711  1.00  0.00     0.165 A 
ATOM      6  C   UNL     1       2.356   4.009   1.924  1.00  0.00     0.237 A 
ENDROOT
BRANCH   1   7
ATOM      7  C   UNL     1       4.423   6.759   4.410  1.00  0.00     0.193 C 
ATOM      8  O   UNL     1       3.871   7.095   5.468  1.00  0.00    -0.289 OA
BRANCH   7   9
ATOM      9  C   UNL     1       5.726   7.300   4.059  1.00  0.00     0.023 A 
ATOM     10  C   UNL     1       5.819   8.538   3.423  1.00  0.00     0.012 A 
ATOM     11  C   UNL     1       6.883   6.581   4.357  1.00  0.00     0.012 A 
ATOM     12  C   UNL     1       7.069   9.057   3.087  1.00  0.00     0.004 A 
ATOM     13  C   UNL     1       8.134   7.100   4.021  1.00  0.00     0.004 A 
ATOM     14  C   UNL     1       8.227   8.338   3.386  1.00  0.00    -0.051 A 
ATOM     15  C   UNL     1       9.563   8.892   3.024  1.00  0.00     0.044 C 
ENDBRANCH   7   9
ENDBRANCH   1   7
BRANCH   4  16
ATOM     16  N   UNL     1       4.496   3.097   1.158  1.00  0.00     0.066 N 
ATOM     17  O   UNL     1       5.609   2.698   1.577  1.00  0.00    -0.258 OA
ATOM     18  O   UNL     1       4.019   2.718   0.064  1.00  0.00    -0.258 OA
ENDBRANCH   4  16
BRANCH   5  19
ATOM     19  O   UNL     1       0.278   4.923   2.692  1.00  0.00    -0.504 OA
ATOM     20  H   UNL     1      -0.052   5.545   3.361  1.00  0.00     0.293 HD
ENDBRANCH   5  19
BRANCH   6  21
ATOM     21  O   UNL     1       1.680   3.130   1.129  1.00  0.00    -0.500 OA
ATOM     22  H   UNL     1       2.070   2.246   1.214  1.00  0.00     0.294 HD
ENDBRANCH   6  21
TORSDOF 5
ENDMDL
MODEL 5
REMARK VINA RESULT:    -4.886      1.756      3.137
REMARK INTER + INTRA:          -6.735
REMARK INTER:                  -6.073
REMARK INTRA:                  -0.662
REMARK UNBOUND:                -0.706
REMARK SMILES Cc1ccc(C(=O)c2cc(O)c(O)c([N+](=O)[O-])c2)cc1
REMARK SMILES IDX 8 1 18 2 9 3 14 4 10 5 12 6 6 7 7 8 5 9 4 10 19 11 3 12
REMARK SMILES IDX 20 13 2 14 1 15 15 16 17 17 16 18 11 19 13 21
REMARK H PARENT 11 20 13 22
ROOT
ATOM      1  C   UNL     1       4.048   5.201   2.775  1.00  0.00     0.033 A 
ATOM      2  C   UNL     1       2.756   4.862   2.445  1.00  0.00     0.102 A 
ATOM      3  C   UNL     1       5.146   4.639   2.169  1.00  0.00     0.063 A 
ATOM      4  C   UNL     1       2.552   3.905   1.450  1.00  0.00     0.315 A 
ATOM      5  C   UNL     1       4.942   3.681   1.175  1.00  0.00     0.165 A 
ATOM      6  C   UNL     1       3.644   3.315   0.815  1.00  0.00     0.237 A 
ENDROOT
BRANCH   1   7
ATOM      7  C   UNL     1       4.267   6.226   3.840  1.00  0.00     0.193 C 
ATOM      8  O   UNL     1       3.365   6.377   4.678  1.00  0.00    -0.289 OA
BRANCH   7   9
ATOM      9  C   UNL     1       5.479   7.026   3.915  1.00  0.00     0.023 A 
ATOM     10  C   UNL     1       6.651   6.470   4.427  1.00  0.00     0.012 A 
ATOM     11  C   UNL     1       5.469   8.349   3.475  1.00  0.00     0.012 A 
ATOM     12  C   UNL     1       7.813   7.238   4.499  1.00  0.00     0.004 A 
ATOM     13  C   UNL     1       6.632   9.118   3.546  1.00  0.00     0.004 A 
ATOM     14  C   UNL     1       7.804   8.562   4.058  1.00  0.00    -0.051 A 
ATOM     15  C   UNL     1       9.047   9.382   4.136  1.00  0.00     0.044 C 
ENDBRANCH   7   9
ENDBRANCH   1   7
BRANCH   4  16
ATOM     16  N   UNL     1       1.223   3.544   1.097  1.00  0.00     0.066 N 
ATOM     17  O   UNL     1       0.971   3.250  -0.096  1.00  0.00    -0.258 OA
ATOM     18  O   UNL     1       0.342   3.530   1.989  1.00  0.00    -0.258 OA
ENDBRANCH   4  16
BRANCH   5  19
ATOM     19  O   UNL     1       6.019   3.113   0.563  1.00  0.00    -0.504 OA
ATOM     20  H   UNL     1       5.716   2.440  -0.068  1.00  0.00     0.293 HD
ENDBRANCH   5  19
BRANCH   6  21
ATOM     21  O   UNL     1       3.458   2.378  -0.159  1.00  0.00    -0.500 OA
ATOM     22  H   UNL     1       3.667   2.762  -1.025  1.00  0.00     0.294 HD
ENDBRANCH   6  21
TORSDOF 5
ENDMDL
MODEL 6
REMARK VINA RESULT:    -4.844      9.335     12.997
REMARK INTER + INTRA:          -6.682
REMARK INTER:                  -6.034
REMARK INTRA:                  -0.648
REMARK UNBOUND:                -0.706
REMARK SMILES Cc1ccc(C(=O)c2cc(O)c(O)c([N+](=O)[O-])c2)cc1
REMARK SMILES IDX 8 1 18 2 9 3 14 4 10 5 12 6 6 7 7 8 5 9 4 10 19 11 3 12
REMARK SMILES IDX 20 13 2 14 1 15 15 16 17 17 16 18 11 19 13 21
REMARK H PARENT 11 20 13 22
ROOT
ATOM      1  C   UNL     1       8.712  12.071  11.243  1.00  0.00     0.033 A 
ATOM      2  C   UNL     1       8.633  13.424  11.482  1.00  0.00     0.102 A 
ATOM      3  C   UNL     1       9.880  11.358  11.372  1.00  0.00     0.063 A 
ATOM      4  C   UNL     1       9.788  14.100  11.874  1.00  0.00     0.315 A 
ATOM      5  C   UNL     1      11.036  12.034  11.763  1.00  0.00     0.165 A 
ATOM      6  C   UNL     1      10.990  13.406  12.015  1.00  0.00     0.237 A 
ENDROOT
BRANCH   1   7
ATOM      7  C   UNL     1       7.475  11.347  10.823  1.00  0.00     0.193 C 
ATOM      8  O   UNL     1       6.596  11.177  11.681  1.00  0.00    -0.289 OA
BRANCH   7   9
ATOM      9  C   UNL     1       7.283  10.851   9.469  1.00  0.00     0.023 A 
ATOM     10  C   UNL     1       6.611   9.647   9.256  1.00  0.00     0.012 A 
ATOM     11  C   UNL     1       7.772  11.578   8.384  1.00  0.00     0.012 A 
ATOM     12  C   UNL     1       6.427   9.172   7.958  1.00  0.00     0.004 A 
ATOM     13  C   UNL     1       7.588  11.103   7.085  1.00  0.00     0.004 A 
ATOM     14  C   UNL     1       6.915   9.900   6.872  1.00  0.00    -0.051 A 
ATOM     15  C   UNL     1       6.720   9.390   5.484  1.00  0.00     0.044 C 
ENDBRANCH   7   9
ENDBRANCH   1   7
BRANCH   4  16
ATOM     16  N   UNL     1       9.722  15.498  12.125  1.00  0.00     0.066 N 
ATOM     17  O   UNL     1       9.449  15.893  13.284  1.00  0.00    -0.258 OA
ATOM     18  O   UNL     1       9.939  16.294  11.182  1.00  0.00    -0.258 OA
ENDBRANCH   4  16
BRANCH   5  19
ATOM     19  O   UNL     1      12.202  11.343  11.897  1.00  0.00    -0.504 OA
ATOM     20  H   UNL     1      12.080  10.434  11.578  1.00  0.00     0.293 HD
ENDBRANCH   5  19
BRANCH   6  21
ATOM     21  O   UNL     1      12.126  14.057  12.398  1.00  0.00    -0.500 OA
ATOM     22  H   UNL     1      12.885  13.457  12.327  1.00  0.00     0.294 HD
ENDBRANCH   6  21
TORSDOF 5
ENDMDL
MODEL 7
REMARK VINA RESULT:    -4.602      4.180      7.129
REMARK INTER + INTRA:          -6.383
REMARK INTER:                  -5.390
REMARK INTRA:                  -0.993
REMARK UNBOUND:                -0.706
REMARK SMILES Cc1ccc(C(=O)c2cc(O)c(O)c([N+](=O)[O-])c2)cc1
REMARK SMILES IDX 8 1 18 2 9 3 14 4 10 5 12 6 6 7 7 8 5 9 4 10 19 11 3 12
REMARK SMILES IDX 20 13 2 14 1 15 15 16 17 17 16 18 11 19 13 21
REMARK H PARENT 11 20 13 22
ROOT
ATOM      1  C   UNL     1       6.861   7.612   4.321  1.00  0.00     0.033 A 
ATOM      2  C   UNL     1       7.996   7.998   3.645  1.00  0.00     0.102 A 
ATOM      3  C   UNL     1       6.414   8.250   5.453  1.00  0.00     0.063 A 
ATOM      4  C   UNL     1       8.723   9.085   4.130  1.00  0.00     0.315 A 
ATOM      5  C   UNL     1       7.142   9.336   5.939  1.00  0.00     0.165 A 
ATOM      6  C   UNL     1       8.297   9.754   5.277  1.00  0.00     0.237 A 
ENDROOT
BRANCH   1   7
ATOM      7  C   UNL     1       6.082   6.448   3.801  1.00  0.00     0.193 C 
ATOM      8  O   UNL     1       6.687   5.375   3.660  1.00  0.00    -0.289 OA
BRANCH   7   9
ATOM      9  C   UNL     1       4.670   6.542   3.467  1.00  0.00     0.023 A 
ATOM     10  C   UNL     1       3.748   5.703   4.093  1.00  0.00     0.012 A 
ATOM     11  C   UNL     1       4.237   7.472   2.522  1.00  0.00     0.012 A 
ATOM     12  C   UNL     1       2.393   5.793   3.772  1.00  0.00     0.004 A 
ATOM     13  C   UNL     1       2.882   7.563   2.202  1.00  0.00     0.004 A 
ATOM     14  C   UNL     1       1.960   6.723   2.827  1.00  0.00    -0.051 A 
ATOM     15  C   UNL     1       0.512   6.819   2.484  1.00  0.00     0.044 C 
ENDBRANCH   7   9
ENDBRANCH   1   7
BRANCH   4  16
ATOM     16  N   UNL     1       9.898   9.496   3.442  1.00  0.00     0.066 N 
ATOM     17  O   UNL     1       9.992   9.266   2.212  1.00  0.00    -0.258 OA
ATOM     18  O   UNL     1      10.804  10.077   4.084  1.00  0.00    -0.258 OA
ENDBRANCH   4  16
BRANCH   5  19
ATOM     19  O   UNL     1       6.713   9.981   7.061  1.00  0.00    -0.504 OA
ATOM     20  H   UNL     1       7.365   9.865   7.772  1.00  0.00     0.293 HD
ENDBRANCH   5  19
BRANCH   6  21
ATOM     21  O   UNL     1       9.000  10.819   5.761  1.00  0.00    -0.500 OA
ATOM     22  H   UNL     1       9.091  10.739   6.724  1.00  0.00     0.294 HD
ENDBRANCH   6  21
TORSDOF 5
ENDMDL
MODEL 8
REMARK VINA RESULT:    -4.591      4.364      7.455
REMARK INTER + INTRA:          -6.371
REMARK INTER:                  -5.371
REMARK INTRA:                  -1.000
REMARK UNBOUND:                -0.706
REMARK SMILES Cc1ccc(C(=O)c2cc(O)c(O)c([N+](=O)[O-])c2)cc1
REMARK SMILES IDX 8 1 18 2 9 3 14 4 10 5 12 6 6 7 7 8 5 9 4 10 19 11 3 12
REMARK SMILES IDX 20 13 2 14 1 15 15 16 17 17 16 18 11 19 13 21
REMARK H PARENT 11 20 13 22
ROOT
ATOM      1  C   UNL     1       6.368   8.515   3.772  1.00  0.00     0.033 A 
ATOM      2  C   UNL     1       6.295   9.063   5.031  1.00  0.00     0.102 A 
ATOM      3  C   UNL     1       7.523   8.508   3.027  1.00  0.00     0.063 A 
ATOM      4  C   UNL     1       7.443   9.636   5.577  1.00  0.00     0.315 A 
ATOM      5  C   UNL     1       8.672   9.082   3.572  1.00  0.00     0.165 A 
ATOM      6  C   UNL     1       8.632   9.645   4.849  1.00  0.00     0.237 A 
ENDROOT
BRANCH   1   7
ATOM      7  C   UNL     1       5.138   7.902   3.187  1.00  0.00     0.193 C 
ATOM      8  O   UNL     1       4.132   8.621   3.095  1.00  0.00    -0.289 OA
BRANCH   7   9
ATOM      9  C   UNL     1       5.095   6.520   2.734  1.00  0.00     0.023 A 
ATOM     10  C   UNL     1       4.735   6.228   1.419  1.00  0.00     0.012 A 
ATOM     11  C   UNL     1       5.414   5.488   3.616  1.00  0.00     0.012 A 
ATOM     12  C   UNL     1       4.694   4.903   0.985  1.00  0.00     0.004 A 
ATOM     13  C   UNL     1       5.374   4.162   3.183  1.00  0.00     0.004 A 
ATOM     14  C   UNL     1       5.013   3.869   1.867  1.00  0.00    -0.051 A 
ATOM     15  C   UNL     1       4.968   2.453   1.403  1.00  0.00     0.044 C 
ENDBRANCH   7   9
ENDBRANCH   1   7
BRANCH   4  16
ATOM     16  N   UNL     1       7.383  10.205   6.879  1.00  0.00     0.066 N 
ATOM     17  O   UNL     1       6.548   9.755   7.700  1.00  0.00    -0.258 OA
ATOM     18  O   UNL     1       8.166  11.140   7.168  1.00  0.00    -0.258 OA
ENDBRANCH   4  16
BRANCH   5  19
ATOM     19  O   UNL     1       9.827   9.084   2.849  1.00  0.00    -0.504 OA
ATOM     20  H   UNL     1      10.588   9.049   3.451  1.00  0.00     0.293 HD
ENDBRANCH   5  19
BRANCH   6  21
ATOM     21  O   UNL     1       9.763  10.203   5.372  1.00  0.00    -0.500 OA
ATOM     22  H   UNL     1       9.633  11.157   5.485  1.00  0.00     0.294 HD
ENDBRANCH   6  21
TORSDOF 5
ENDMDL
MODEL 9
REMARK VINA RESULT:    -4.563      4.253      7.500
REMARK INTER + INTRA:          -6.335
REMARK INTER:                  -5.324
REMARK INTRA:                  -1.011
REMARK UNBOUND:                -0.706
REMARK SMILES Cc1ccc(C(=O)c2cc(O)c(O)c([N+](=O)[O-])c2)cc1
REMARK SMILES IDX 8 1 18 2 9 3 14 4 10 5 12 6 6 7 7 8 5 9 4 10 19 11 3 12
REMARK SMILES IDX 20 13 2 14 1 15 15 16 17 17 16 18 11 19 13 21
REMARK H PARENT 11 20 13 22
ROOT
ATOM      1  C   UNL     1       6.909   7.498   4.235  1.00  0.00     0.033 A 
ATOM      2  C   UNL     1       6.506   8.190   5.353  1.00  0.00     0.102 A 
ATOM      3  C   UNL     1       8.039   7.822   3.523  1.00  0.00     0.063 A 
ATOM      4  C   UNL     1       7.279   9.268   5.784  1.00  0.00     0.315 A 
ATOM      5  C   UNL     1       8.811   8.901   3.953  1.00  0.00     0.165 A 
ATOM      6  C   UNL     1       8.432   9.624   5.084  1.00  0.00     0.237 A 
ENDROOT
BRANCH   1   7
ATOM      7  C   UNL     1       6.081   6.343   3.773  1.00  0.00     0.193 C 
ATOM      8  O   UNL     1       6.646   5.243   3.670  1.00  0.00    -0.289 OA
BRANCH   7   9
ATOM      9  C   UNL     1       4.669   6.475   3.451  1.00  0.00     0.023 A 
ATOM     10  C   UNL     1       3.732   5.649   4.073  1.00  0.00     0.012 A 
ATOM     11  C   UNL     1       4.252   7.426   2.521  1.00  0.00     0.012 A 
ATOM     12  C   UNL     1       2.378   5.776   3.764  1.00  0.00     0.004 A 
ATOM     13  C   UNL     1       2.897   7.554   2.212  1.00  0.00     0.004 A 
ATOM     14  C   UNL     1       1.960   6.729   2.834  1.00  0.00    -0.051 A 
ATOM     15  C   UNL     1       0.512   6.863   2.503  1.00  0.00     0.044 C 
ENDBRANCH   7   9
ENDBRANCH   1   7
BRANCH   4  16
ATOM     16  N   UNL     1       6.876   9.993   6.939  1.00  0.00     0.066 N 
ATOM     17  O   UNL     1       7.755  10.532   7.654  1.00  0.00    -0.258 OA
ATOM     18  O   UNL     1       5.655  10.074   7.208  1.00  0.00    -0.258 OA
ENDBRANCH   4  16
BRANCH   5  19
ATOM     19  O   UNL     1       9.935   9.238   3.260  1.00  0.00    -0.504 OA
ATOM     20  H   UNL     1      10.585   9.631   3.865  1.00  0.00     0.293 HD
ENDBRANCH   5  19
BRANCH   6  21
ATOM     21  O   UNL     1       9.196  10.677   5.496  1.00  0.00    -0.500 OA
ATOM     22  H   UNL     1       9.480  10.536   6.412  1.00  0.00     0.294 HD
ENDBRANCH   6  21
TORSDOF 5
ENDMDL
