MODEL 1
REMARK VINA RESULT:    -6.984      0.000      0.000
REMARK INTER + INTRA:          -8.782
REMARK INTER:                  -8.209
REMARK INTRA:                  -0.573
REMARK UNBOUND:                -0.573
REMARK SMILES O=C(O)c1cc(-c2ccc(F)cc2F)ccc1O
REMARK SMILES IDX 6 1 5 2 15 3 4 4 17 5 16 6 7 7 13 8 12 9 8 10 10 11 9 12
REMARK SMILES IDX 14 13 11 14 2 15 1 16 3 17 18 19
REMARK H PARENT 3 18 18 20
ROOT
ATOM      1  C   UNL     1       4.389   7.562  -2.062  1.00  0.00    -0.014 A 
ATOM      2  C   UNL     1       5.170   6.510  -1.584  1.00  0.00     0.028 A 
ATOM      3  C   UNL     1       3.010   7.402  -2.195  1.00  0.00     0.013 A 
ATOM      4  C   UNL     1       4.571   5.298  -1.238  1.00  0.00     0.102 A 
ATOM      5  C   UNL     1       3.192   5.139  -1.371  1.00  0.00     0.130 A 
ATOM      6  C   UNL     1       2.411   6.192  -1.850  1.00  0.00     0.048 A 
ENDROOT
BRANCH   1   7
ATOM      7  C   UNL     1       5.010   8.818  -2.422  1.00  0.00     0.018 A 
ATOM      8  C   UNL     1       5.959   9.398  -1.579  1.00  0.00     0.133 A 
ATOM      9  C   UNL     1       6.555  10.610  -1.930  1.00  0.00     0.079 A 
ATOM     10  C   UNL     1       4.658   9.450  -3.614  1.00  0.00     0.015 A 
ATOM     11  C   UNL     1       6.202  11.241  -3.122  1.00  0.00     0.126 A 
ATOM     12  C   UNL     1       5.253  10.661  -3.964  1.00  0.00     0.040 A 
ATOM     13  F   UNL     1       6.307   8.805  -0.428  1.00  0.00    -0.206 F 
ATOM     14  F   UNL     1       6.773  12.404  -3.460  1.00  0.00    -0.207 F 
ENDBRANCH   1   7
BRANCH   4  15
ATOM     15  C   UNL     1       5.403   4.211  -0.740  1.00  0.00     0.339 C 
ATOM     16  O   UNL     1       5.437   3.068  -1.202  1.00  0.00    -0.246 OA
BRANCH  15  17
ATOM     17  O   UNL     1       6.169   4.589   0.320  1.00  0.00    -0.478 OA
ATOM     18  H   UNL     1       5.688   4.496   1.169  1.00  0.00     0.297 HD
ENDBRANCH  15  17
ENDBRANCH   4  15
BRANCH   5  19
ATOM     19  O   UNL     1       2.587   3.963  -1.038  1.00  0.00    -0.507 OA
ATOM     20  H   UNL     1       2.352   3.983  -0.094  1.00  0.00     0.293 HD
ENDBRANCH   5  19
TORSDOF 4
ENDMDL
MODEL 2
REMARK VINA RESULT:    -6.972      1.132      1.612
REMARK INTER + INTRA:          -8.768
REMARK INTER:                  -8.201
REMARK INTRA:                  -0.566
REMARK UNBOUND:                -0.573
REMARK SMILES O=C(O)c1cc(-c2ccc(F)cc2F)ccc1O
REMARK SMILES IDX 6 1 5 2 15 3 4 4 17 5 16 6 7 7 13 8 12 9 8 10 10 11 9 12
REMARK SMILES IDX 14 13 11 14 2 15 1 16 3 17 18 19
REMARK H PARENT 3 18 18 20
ROOT
ATOM      1  C   UNL     1       4.360   7.535  -2.116  1.00  0.00    -0.014 A 
ATOM      2  C   UNL     1       5.145   6.494  -1.622  1.00  0.00     0.028 A 
ATOM      3  C   UNL     1       2.982   7.368  -2.249  1.00  0.00     0.013 A 
ATOM      4  C   UNL     1       4.552   5.283  -1.262  1.00  0.00     0.102 A 
ATOM      5  C   UNL     1       3.173   5.116  -1.396  1.00  0.00     0.130 A 
ATOM      6  C   UNL     1       2.388   6.158  -1.889  1.00  0.00     0.048 A 
ENDROOT
BRANCH   1   7
ATOM      7  C   UNL     1       4.975   8.791  -2.491  1.00  0.00     0.018 A 
ATOM      8  C   UNL     1       4.636   9.404  -3.698  1.00  0.00     0.133 A 
ATOM      9  C   UNL     1       5.231  10.614  -4.055  1.00  0.00     0.079 A 
ATOM     10  C   UNL     1       5.907   9.388  -1.642  1.00  0.00     0.015 A 
ATOM     11  C   UNL     1       6.164  11.210  -3.207  1.00  0.00     0.126 A 
ATOM     12  C   UNL     1       6.501  10.597  -2.000  1.00  0.00     0.040 A 
ATOM     13  F   UNL     1       3.745   8.841  -4.526  1.00  0.00    -0.206 F 
ATOM     14  F   UNL     1       6.735  12.372  -3.550  1.00  0.00    -0.207 F 
ENDBRANCH   1   7
BRANCH   4  15
ATOM     15  C   UNL     1       5.388   4.208  -0.748  1.00  0.00     0.339 C 
ATOM     16  O   UNL     1       5.435   3.062  -1.201  1.00  0.00    -0.246 OA
BRANCH  15  17
ATOM     17  O   UNL     1       6.142   4.600   0.315  1.00  0.00    -0.478 OA
ATOM     18  H   UNL     1       6.282   5.570   0.324  1.00  0.00     0.297 HD
ENDBRANCH  15  17
ENDBRANCH   4  15
BRANCH   5  19
ATOM     19  O   UNL     1       2.574   3.941  -1.049  1.00  0.00    -0.507 OA
ATOM     20  H   UNL     1       1.807   4.132  -0.481  1.00  0.00     0.293 HD
ENDBRANCH   5  19
TORSDOF 4
ENDMDL
MODEL 3
REMARK VINA RESULT:    -6.961      1.244      2.726
REMARK INTER + INTRA:          -8.755
REMARK INTER:                  -8.186
REMARK INTRA:                  -0.568
REMARK UNBOUND:                -0.573
REMARK SMILES O=C(O)c1cc(-c2ccc(F)cc2F)ccc1O
REMARK SMILES IDX 6 1 5 2 15 3 4 4 17 5 16 6 7 7 13 8 12 9 8 10 10 11 9 12
REMARK SMILES IDX 14 13 11 14 2 15 1 16 3 17 18 19
REMARK H PARENT 3 18 18 20
ROOT
ATOM      1  C   UNL     1       4.375   7.530  -2.129  1.00  0.00    -0.014 A 
ATOM      2  C   UNL     1       2.994   7.408  -2.281  1.00  0.00     0.028 A 
ATOM      3  C   UNL     1       5.123   6.450  -1.661  1.00  0.00     0.013 A 
ATOM      4  C   UNL     1       2.361   6.206  -1.964  1.00  0.00     0.102 A 
ATOM      5  C   UNL     1       3.109   5.126  -1.496  1.00  0.00     0.130 A 
ATOM      6  C   UNL     1       4.491   5.248  -1.345  1.00  0.00     0.048 A 
ENDROOT
BRANCH   1   7
ATOM      7  C   UNL     1       5.032   8.777  -2.456  1.00  0.00     0.018 A 
ATOM      8  C   UNL     1       5.963   9.330  -1.575  1.00  0.00     0.133 A 
ATOM      9  C   UNL     1       6.595  10.532  -1.894  1.00  0.00     0.079 A 
ATOM     10  C   UNL     1       4.734   9.426  -3.654  1.00  0.00     0.015 A 
ATOM     11  C   UNL     1       6.296  11.181  -3.091  1.00  0.00     0.126 A 
ATOM     12  C   UNL     1       5.366  10.627  -3.971  1.00  0.00     0.040 A 
ATOM     13  F   UNL     1       6.259   8.720  -0.418  1.00  0.00    -0.206 F 
ATOM     14  F   UNL     1       6.901  12.336  -3.398  1.00  0.00    -0.207 F 
ENDBRANCH   1   7
BRANCH   4  15
ATOM     15  C   UNL     1       0.918   6.098  -2.130  1.00  0.00     0.339 C 
ATOM     16  O   UNL     1       0.120   5.775  -1.247  1.00  0.00    -0.246 OA
BRANCH  15  17
ATOM     17  O   UNL     1       0.518   6.400  -3.395  1.00  0.00    -0.478 OA
ATOM     18  H   UNL     1       0.251   7.340  -3.479  1.00  0.00     0.297 HD
ENDBRANCH  15  17
ENDBRANCH   4  15
BRANCH   5  19
ATOM     19  O   UNL     1       2.510   3.942  -1.183  1.00  0.00    -0.507 OA
ATOM     20  H   UNL     1       3.104   3.211  -1.427  1.00  0.00     0.293 HD
ENDBRANCH   5  19
TORSDOF 4
ENDMDL
MODEL 4
REMARK VINA RESULT:    -6.911      1.736      3.228
REMARK INTER + INTRA:          -8.695
REMARK INTER:                  -7.989
REMARK INTRA:                  -0.707
REMARK UNBOUND:                -0.573
REMARK SMILES O=C(O)c1cc(-c2ccc(F)cc2F)ccc1O
REMARK SMILES IDX 6 1 5 2 15 3 4 4 17 5 16 6 7 7 13 8 12 9 8 10 10 11 9 12
REMARK SMILES IDX 14 13 11 14 2 15 1 16 3 17 18 19
REMARK H PARENT 3 18 18 20
ROOT
ATOM      1  C   UNL     1       4.305   7.590  -2.248  1.00  0.00    -0.014 A 
ATOM      2  C   UNL     1       2.914   7.535  -2.327  1.00  0.00     0.028 A 
ATOM      3  C   UNL     1       5.026   6.461  -1.861  1.00  0.00     0.013 A 
ATOM      4  C   UNL     1       2.243   6.351  -2.018  1.00  0.00     0.102 A 
ATOM      5  C   UNL     1       2.965   5.222  -1.631  1.00  0.00     0.130 A 
ATOM      6  C   UNL     1       4.357   5.277  -1.553  1.00  0.00     0.048 A 
ENDROOT
BRANCH   1   7
ATOM      7  C   UNL     1       5.000   8.818  -2.567  1.00  0.00     0.018 A 
ATOM      8  C   UNL     1       4.720   9.494  -3.755  1.00  0.00     0.133 A 
ATOM      9  C   UNL     1       5.394  10.678  -4.058  1.00  0.00     0.079 A 
ATOM     10  C   UNL     1       5.952   9.326  -1.682  1.00  0.00     0.015 A 
ATOM     11  C   UNL     1       6.346  11.185  -3.174  1.00  0.00     0.126 A 
ATOM     12  C   UNL     1       6.624  10.509  -1.986  1.00  0.00     0.040 A 
ATOM     13  F   UNL     1       3.811   9.017  -4.617  1.00  0.00    -0.206 F 
ATOM     14  F   UNL     1       6.992  12.321  -3.465  1.00  0.00    -0.207 F 
ENDBRANCH   1   7
BRANCH   4  15
ATOM     15  C   UNL     1       0.790   6.314  -2.107  1.00  0.00     0.339 C 
ATOM     16  O   UNL     1       0.039   5.764  -1.298  1.00  0.00    -0.246 OA
BRANCH  15  17
ATOM     17  O   UNL     1       0.321   6.969  -3.204  1.00  0.00    -0.478 OA
ATOM     18  H   UNL     1      -0.071   7.836  -2.971  1.00  0.00     0.297 HD
ENDBRANCH  15  17
ENDBRANCH   4  15
BRANCH   5  19
ATOM     19  O   UNL     1       2.329   4.055  -1.327  1.00  0.00    -0.507 OA
ATOM     20  H   UNL     1       1.520   3.986  -1.862  1.00  0.00     0.293 HD
ENDBRANCH   5  19
TORSDOF 4
ENDMDL
MODEL 5
REMARK VINA RESULT:    -5.403      4.581      6.922
REMARK INTER + INTRA:          -6.923
REMARK INTER:                  -5.839
REMARK INTRA:                  -1.084
REMARK UNBOUND:                -0.573
REMARK SMILES O=C(O)c1cc(-c2ccc(F)cc2F)ccc1O
REMARK SMILES IDX 6 1 5 2 15 3 4 4 17 5 16 6 7 7 13 8 12 9 8 10 10 11 9 12
REMARK SMILES IDX 14 13 11 14 2 15 1 16 3 17 18 19
REMARK H PARENT 3 18 18 20
ROOT
ATOM      1  C   UNL     1       5.376   9.869  -2.885  1.00  0.00    -0.014 A 
ATOM      2  C   UNL     1       4.819  11.126  -2.654  1.00  0.00     0.028 A 
ATOM      3  C   UNL     1       6.664   9.763  -3.410  1.00  0.00     0.013 A 
ATOM      4  C   UNL     1       5.549  12.278  -2.948  1.00  0.00     0.102 A 
ATOM      5  C   UNL     1       6.836  12.172  -3.474  1.00  0.00     0.130 A 
ATOM      6  C   UNL     1       7.394  10.913  -3.705  1.00  0.00     0.048 A 
ENDROOT
BRANCH   1   7
ATOM      7  C   UNL     1       4.619   8.674  -2.581  1.00  0.00     0.018 A 
ATOM      8  C   UNL     1       3.754   8.131  -3.532  1.00  0.00     0.133 A 
ATOM      9  C   UNL     1       3.026   6.979  -3.235  1.00  0.00     0.079 A 
ATOM     10  C   UNL     1       4.756   8.064  -1.334  1.00  0.00     0.015 A 
ATOM     11  C   UNL     1       3.163   6.370  -1.988  1.00  0.00     0.126 A 
ATOM     12  C   UNL     1       4.028   6.912  -1.038  1.00  0.00     0.040 A 
ATOM     13  F   UNL     1       3.609   8.707  -4.734  1.00  0.00    -0.206 F 
ATOM     14  F   UNL     1       2.464   5.263  -1.702  1.00  0.00    -0.207 F 
ENDBRANCH   1   7
BRANCH   4  15
ATOM     15  C   UNL     1       4.949  13.581  -2.700  1.00  0.00     0.339 C 
ATOM     16  O   UNL     1       5.506  14.668  -2.872  1.00  0.00    -0.246 OA
BRANCH  15  17
ATOM     17  O   UNL     1       3.670  13.485  -2.245  1.00  0.00    -0.478 OA
ATOM     18  H   UNL     1       3.635  13.417  -1.267  1.00  0.00     0.297 HD
ENDBRANCH  15  17
ENDBRANCH   4  15
BRANCH   5  19
ATOM     19  O   UNL     1       7.566  13.285  -3.768  1.00  0.00    -0.507 OA
ATOM     20  H   UNL     1       7.190  13.712  -4.556  1.00  0.00     0.293 HD
ENDBRANCH   5  19
TORSDOF 4
ENDMDL
MODEL 6
REMARK VINA RESULT:    -5.400      1.112      1.389
REMARK INTER + INTRA:          -6.920
REMARK INTER:                  -6.271
REMARK INTRA:                  -0.648
REMARK UNBOUND:                -0.573
REMARK SMILES O=C(O)c1cc(-c2ccc(F)cc2F)ccc1O
REMARK SMILES IDX 6 1 5 2 15 3 4 4 17 5 16 6 7 7 13 8 12 9 8 10 10 11 9 12
REMARK SMILES IDX 14 13 11 14 2 15 1 16 3 17 18 19
REMARK H PARENT 3 18 18 20
ROOT
ATOM      1  C   UNL     1       4.533   8.014  -2.359  1.00  0.00    -0.014 A 
ATOM      2  C   UNL     1       5.271   7.018  -1.721  1.00  0.00     0.028 A 
ATOM      3  C   UNL     1       3.202   7.782  -2.706  1.00  0.00     0.013 A 
ATOM      4  C   UNL     1       4.680   5.788  -1.431  1.00  0.00     0.102 A 
ATOM      5  C   UNL     1       3.349   5.556  -1.778  1.00  0.00     0.130 A 
ATOM      6  C   UNL     1       2.610   6.553  -2.416  1.00  0.00     0.048 A 
ENDROOT
BRANCH   1   7
ATOM      7  C   UNL     1       5.147   9.289  -2.662  1.00  0.00     0.018 A 
ATOM      8  C   UNL     1       6.444   9.338  -3.175  1.00  0.00     0.133 A 
ATOM      9  C   UNL     1       7.032  10.569  -3.465  1.00  0.00     0.079 A 
ATOM     10  C   UNL     1       4.439  10.470  -2.441  1.00  0.00     0.015 A 
ATOM     11  C   UNL     1       6.324  11.750  -3.243  1.00  0.00     0.126 A 
ATOM     12  C   UNL     1       5.027  11.700  -2.731  1.00  0.00     0.040 A 
ATOM     13  F   UNL     1       7.139   8.212  -3.390  1.00  0.00    -0.206 F 
ATOM     14  F   UNL     1       6.888  12.932  -3.522  1.00  0.00    -0.207 F 
ENDBRANCH   1   7
BRANCH   4  15
ATOM     15  C   UNL     1       5.468   4.761  -0.764  1.00  0.00     0.339 C 
ATOM     16  O   UNL     1       6.237   4.952   0.181  1.00  0.00    -0.246 OA
BRANCH  15  17
ATOM     17  O   UNL     1       5.268   3.526  -1.300  1.00  0.00    -0.478 OA
ATOM     18  H   UNL     1       4.350   3.212  -1.161  1.00  0.00     0.297 HD
ENDBRANCH  15  17
ENDBRANCH   4  15
BRANCH   5  19
ATOM     19  O   UNL     1       2.751   4.362  -1.502  1.00  0.00    -0.507 OA
ATOM     20  H   UNL     1       1.972   4.519  -0.941  1.00  0.00     0.293 HD
ENDBRANCH   5  19
TORSDOF 4
ENDMDL
MODEL 7
REMARK VINA RESULT:    -5.352      4.055      6.291
REMARK INTER + INTRA:          -6.863
REMARK INTER:                  -5.793
REMARK INTRA:                  -1.070
REMARK UNBOUND:                -0.573
REMARK SMILES O=C(O)c1cc(-c2ccc(F)cc2F)ccc1O
REMARK SMILES IDX 6 1 5 2 15 3 4 4 17 5 16 6 7 7 13 8 12 9 8 10 10 11 9 12
REMARK SMILES IDX 14 13 11 14 2 15 1 16 3 17 18 19
REMARK H PARENT 3 18 18 20
ROOT
ATOM      1  C   UNL     1       5.689   9.748  -2.661  1.00  0.00    -0.014 A 
ATOM      2  C   UNL     1       6.960   9.791  -3.234  1.00  0.00     0.028 A 
ATOM      3  C   UNL     1       4.971  10.928  -2.467  1.00  0.00     0.013 A 
ATOM      4  C   UNL     1       7.513  11.014  -3.614  1.00  0.00     0.102 A 
ATOM      5  C   UNL     1       6.794  12.194  -3.421  1.00  0.00     0.130 A 
ATOM      6  C   UNL     1       5.523  12.151  -2.847  1.00  0.00     0.048 A 
ENDROOT
BRANCH   1   7
ATOM      7  C   UNL     1       5.116   8.480  -2.265  1.00  0.00     0.018 A 
ATOM      8  C   UNL     1       5.416   7.934  -1.016  1.00  0.00     0.133 A 
ATOM      9  C   UNL     1       4.861   6.711  -0.638  1.00  0.00     0.079 A 
ATOM     10  C   UNL     1       4.260   7.803  -3.134  1.00  0.00     0.015 A 
ATOM     11  C   UNL     1       4.007   6.035  -1.508  1.00  0.00     0.126 A 
ATOM     12  C   UNL     1       3.706   6.581  -2.756  1.00  0.00     0.040 A 
ATOM     13  F   UNL     1       6.239   8.570  -0.170  1.00  0.00    -0.206 F 
ATOM     14  F   UNL     1       3.473   4.861  -1.146  1.00  0.00    -0.207 F 
ENDBRANCH   1   7
BRANCH   4  15
ATOM     15  C   UNL     1       8.841  11.038  -4.212  1.00  0.00     0.339 C 
ATOM     16  O   UNL     1       9.591  12.016  -4.245  1.00  0.00    -0.246 OA
BRANCH  15  17
ATOM     17  O   UNL     1       9.189   9.836  -4.748  1.00  0.00    -0.478 OA
ATOM     18  H   UNL     1       8.409   9.259  -4.887  1.00  0.00     0.297 HD
ENDBRANCH  15  17
ENDBRANCH   4  15
BRANCH   5  19
ATOM     19  O   UNL     1       7.316  13.399  -3.786  1.00  0.00    -0.507 OA
ATOM     20  H   UNL     1       7.490  13.925  -2.986  1.00  0.00     0.293 HD
ENDBRANCH   5  19
TORSDOF 4
ENDMDL
MODEL 8
REMARK VINA RESULT:    -4.591      2.185      3.384
REMARK INTER + INTRA:          -5.969
REMARK INTER:                  -4.959
REMARK INTRA:                  -1.010
REMARK UNBOUND:                -0.573
REMARK SMILES O=C(O)c1cc(-c2ccc(F)cc2F)ccc1O
REMARK SMILES IDX 6 1 5 2 15 3 4 4 17 5 16 6 7 7 13 8 12 9 8 10 10 11 9 12
REMARK SMILES IDX 14 13 11 14 2 15 1 16 3 17 18 19
REMARK H PARENT 3 18 18 20
ROOT
ATOM      1  C   UNL     1       5.255   8.917  -2.330  1.00  0.00    -0.014 A 
ATOM      2  C   UNL     1       4.142   8.546  -3.083  1.00  0.00     0.028 A 
ATOM      3  C   UNL     1       5.495   8.314  -1.095  1.00  0.00     0.013 A 
ATOM      4  C   UNL     1       3.268   7.571  -2.602  1.00  0.00     0.102 A 
ATOM      5  C   UNL     1       3.507   6.967  -1.367  1.00  0.00     0.130 A 
ATOM      6  C   UNL     1       4.622   7.339  -0.614  1.00  0.00     0.048 A 
ENDROOT
BRANCH   1   7
ATOM      7  C   UNL     1       6.162   9.929  -2.827  1.00  0.00     0.018 A 
ATOM      8  C   UNL     1       5.779  11.271  -2.832  1.00  0.00     0.133 A 
ATOM      9  C   UNL     1       6.656  12.244  -3.313  1.00  0.00     0.079 A 
ATOM     10  C   UNL     1       7.421   9.561  -3.301  1.00  0.00     0.015 A 
ATOM     11  C   UNL     1       7.914  11.875  -3.788  1.00  0.00     0.126 A 
ATOM     12  C   UNL     1       8.297  10.534  -3.781  1.00  0.00     0.040 A 
ATOM     13  F   UNL     1       4.571  11.642  -2.383  1.00  0.00    -0.206 F 
ATOM     14  F   UNL     1       8.757  12.808  -4.250  1.00  0.00    -0.207 F 
ENDBRANCH   1   7
BRANCH   4  15
ATOM     15  C   UNL     1       2.111   7.197  -3.404  1.00  0.00     0.339 C 
ATOM     16  O   UNL     1       1.119   6.594  -2.987  1.00  0.00    -0.246 OA
BRANCH  15  17
ATOM     17  O   UNL     1       2.231   7.590  -4.701  1.00  0.00    -0.478 OA
ATOM     18  H   UNL     1       2.393   6.830  -5.299  1.00  0.00     0.297 HD
ENDBRANCH  15  17
ENDBRANCH   4  15
BRANCH   5  19
ATOM     19  O   UNL     1       2.666   6.012  -0.880  1.00  0.00    -0.507 OA
ATOM     20  H   UNL     1       2.603   5.286  -1.524  1.00  0.00     0.293 HD
ENDBRANCH   5  19
TORSDOF 4
ENDMDL
MODEL 9
REMARK VINA RESULT:    -4.339      7.993      9.394
REMARK INTER + INTRA:          -5.673
REMARK INTER:                  -4.685
REMARK INTRA:                  -0.988
REMARK UNBOUND:                -0.573
REMARK SMILES O=C(O)c1cc(-c2ccc(F)cc2F)ccc1O
REMARK SMILES IDX 6 1 5 2 15 3 4 4 17 5 16 6 7 7 13 8 12 9 8 10 10 11 9 12
REMARK SMILES IDX 14 13 11 14 2 15 1 16 3 17 18 19
REMARK H PARENT 3 18 18 20
ROOT
ATOM      1  C   UNL     1       0.013   1.556   1.597  1.00  0.00    -0.014 A 
ATOM      2  C   UNL     1       0.838   1.707   2.711  1.00  0.00     0.028 A 
ATOM      3  C   UNL     1      -1.283   2.072   1.614  1.00  0.00     0.013 A 
ATOM      4  C   UNL     1       0.368   2.375   3.842  1.00  0.00     0.102 A 
ATOM      5  C   UNL     1      -0.928   2.891   3.859  1.00  0.00     0.130 A 
ATOM      6  C   UNL     1      -1.753   2.739   2.744  1.00  0.00     0.048 A 
ENDROOT
BRANCH   1   7
ATOM      7  C   UNL     1       0.500   0.862   0.424  1.00  0.00     0.018 A 
ATOM      8  C   UNL     1       1.331   1.519  -0.484  1.00  0.00     0.133 A 
ATOM      9  C   UNL     1       1.798   0.847  -1.614  1.00  0.00     0.079 A 
ATOM     10  C   UNL     1       0.137  -0.466   0.203  1.00  0.00     0.015 A 
ATOM     11  C   UNL     1       1.434  -0.481  -1.835  1.00  0.00     0.126 A 
ATOM     12  C   UNL     1       0.604  -1.137  -0.927  1.00  0.00     0.040 A 
ATOM     13  F   UNL     1       1.687   2.796  -0.287  1.00  0.00    -0.206 F 
ATOM     14  F   UNL     1       1.881  -1.127  -2.919  1.00  0.00    -0.207 F 
ENDBRANCH   1   7
BRANCH   4  15
ATOM     15  C   UNL     1       1.245   2.523   4.995  1.00  0.00     0.339 C 
ATOM     16  O   UNL     1       1.412   3.563   5.637  1.00  0.00    -0.246 OA
BRANCH  15  17
ATOM     17  O   UNL     1       1.887   1.365   5.310  1.00  0.00    -0.478 OA
ATOM     18  H   UNL     1       1.642   0.635   4.703  1.00  0.00     0.297 HD
ENDBRANCH  15  17
ENDBRANCH   4  15
BRANCH   5  19
ATOM     19  O   UNL     1      -1.406   3.547   4.954  1.00  0.00    -0.507 OA
ATOM     20  H   UNL     1      -1.204   4.495   4.869  1.00  0.00     0.293 HD
ENDBRANCH   5  19
TORSDOF 4
ENDMDL
