MODEL 1
REMARK VINA RESULT:    -5.210      0.000      0.000
REMARK INTER + INTRA:          -7.165
REMARK INTER:                  -6.429
REMARK INTRA:                  -0.736
REMARK UNBOUND:                -0.736
REMARK SMILES Cc1ccc(C(=O)c2cc(O)c(O)c([N+](=O)[O-])c2)cc1
REMARK SMILES IDX 8 1 18 2 9 3 14 4 10 5 12 6 6 7 7 8 5 9 4 10 19 11 3 12
REMARK SMILES IDX 20 13 2 14 1 15 15 16 17 17 16 18 11 19 13 21
REMARK H PARENT 11 20 13 22
ROOT
ATOM      1  C   UNL     1      -5.591   7.969  -0.411  1.00  0.00     0.033 A 
ATOM      2  C   UNL     1      -5.608   7.314   0.799  1.00  0.00     0.102 A 
ATOM      3  C   UNL     1      -4.744   7.623  -1.436  1.00  0.00     0.063 A 
ATOM      4  C   UNL     1      -4.727   6.249   0.992  1.00  0.00     0.315 A 
ATOM      5  C   UNL     1      -3.862   6.559  -1.242  1.00  0.00     0.165 A 
ATOM      6  C   UNL     1      -3.854   5.872  -0.028  1.00  0.00     0.237 A 
ENDROOT
BRANCH   1   7
ATOM      7  C   UNL     1      -6.534   9.109  -0.618  1.00  0.00     0.193 C 
ATOM      8  O   UNL     1      -6.981   9.277  -1.763  1.00  0.00    -0.289 OA
BRANCH   7   9
ATOM      9  C   UNL     1      -6.929  10.001   0.461  1.00  0.00     0.023 A 
ATOM     10  C   UNL     1      -6.288  11.229   0.620  1.00  0.00     0.012 A 
ATOM     11  C   UNL     1      -7.950   9.628   1.335  1.00  0.00     0.012 A 
ATOM     12  C   UNL     1      -6.667  12.084   1.655  1.00  0.00     0.004 A 
ATOM     13  C   UNL     1      -8.330  10.483   2.371  1.00  0.00     0.004 A 
ATOM     14  C   UNL     1      -7.688  11.712   2.530  1.00  0.00    -0.051 A 
ATOM     15  C   UNL     1      -8.092  12.625   3.637  1.00  0.00     0.044 C 
ENDBRANCH   7   9
ENDBRANCH   1   7
BRANCH   4  16
ATOM     16  N   UNL     1      -4.733   5.562   2.237  1.00  0.00     0.066 N 
ATOM     17  O   UNL     1      -3.666   5.047   2.650  1.00  0.00    -0.258 OA
ATOM     18  O   UNL     1      -5.803   5.490   2.884  1.00  0.00    -0.258 OA
ENDBRANCH   4  16
BRANCH   5  19
ATOM     19  O   UNL     1      -3.016   6.201  -2.248  1.00  0.00    -0.504 OA
ATOM     20  H   UNL     1      -2.116   6.100  -1.895  1.00  0.00     0.293 HD
ENDBRANCH   5  19
BRANCH   6  21
ATOM     21  O   UNL     1      -2.988   4.832   0.150  1.00  0.00    -0.500 OA
ATOM     22  H   UNL     1      -3.417   4.002  -0.112  1.00  0.00     0.294 HD
ENDBRANCH   6  21
TORSDOF 5
ENDMDL
MODEL 2
REMARK VINA RESULT:    -5.209      1.993      3.548
REMARK INTER + INTRA:          -7.163
REMARK INTER:                  -6.441
REMARK INTRA:                  -0.722
REMARK UNBOUND:                -0.736
REMARK SMILES Cc1ccc(C(=O)c2cc(O)c(O)c([N+](=O)[O-])c2)cc1
REMARK SMILES IDX 8 1 18 2 9 3 14 4 10 5 12 6 6 7 7 8 5 9 4 10 19 11 3 12
REMARK SMILES IDX 20 13 2 14 1 15 15 16 17 17 16 18 11 19 13 21
REMARK H PARENT 11 20 13 22
ROOT
ATOM      1  C   UNL     1      -4.992   8.165   1.272  1.00  0.00     0.033 A 
ATOM      2  C   UNL     1      -4.527   8.185  -0.022  1.00  0.00     0.102 A 
ATOM      3  C   UNL     1      -4.818   7.091   2.112  1.00  0.00     0.063 A 
ATOM      4  C   UNL     1      -3.847   7.066  -0.503  1.00  0.00     0.315 A 
ATOM      5  C   UNL     1      -4.139   5.971   1.630  1.00  0.00     0.165 A 
ATOM      6  C   UNL     1      -3.652   5.959   0.322  1.00  0.00     0.237 A 
ENDROOT
BRANCH   1   7
ATOM      7  C   UNL     1      -5.721   9.364   1.787  1.00  0.00     0.193 C 
ATOM      8  O   UNL     1      -5.594   9.632   2.992  1.00  0.00    -0.289 OA
BRANCH   7   9
ATOM      9  C   UNL     1      -6.551  10.198   0.934  1.00  0.00     0.023 A 
ATOM     10  C   UNL     1      -7.934  10.018   0.915  1.00  0.00     0.012 A 
ATOM     11  C   UNL     1      -5.965  11.179   0.135  1.00  0.00     0.012 A 
ATOM     12  C   UNL     1      -8.730  10.819   0.096  1.00  0.00     0.004 A 
ATOM     13  C   UNL     1      -6.761  11.981  -0.685  1.00  0.00     0.004 A 
ATOM     14  C   UNL     1      -8.144  11.801  -0.704  1.00  0.00    -0.051 A 
ATOM     15  C   UNL     1      -8.995  12.656  -1.580  1.00  0.00     0.044 C 
ENDBRANCH   7   9
ENDBRANCH   1   7
BRANCH   4  16
ATOM     16  N   UNL     1      -3.359   7.072  -1.839  1.00  0.00     0.066 N 
ATOM     17  O   UNL     1      -3.020   8.164  -2.356  1.00  0.00    -0.258 OA
ATOM     18  O   UNL     1      -3.281   5.986  -2.460  1.00  0.00    -0.258 OA
ENDBRANCH   4  16
BRANCH   5  19
ATOM     19  O   UNL     1      -3.956   4.897   2.449  1.00  0.00    -0.504 OA
ATOM     20  H   UNL     1      -4.535   4.170   2.166  1.00  0.00     0.293 HD
ENDBRANCH   5  19
BRANCH   6  21
ATOM     21  O   UNL     1      -2.989   4.859  -0.137  1.00  0.00    -0.500 OA
ATOM     22  H   UNL     1      -3.537   4.069  -0.006  1.00  0.00     0.294 HD
ENDBRANCH   6  21
TORSDOF 5
ENDMDL
MODEL 3
REMARK VINA RESULT:    -4.962      8.710     12.220
REMARK INTER + INTRA:          -6.858
REMARK INTER:                  -5.923
REMARK INTRA:                  -0.935
REMARK UNBOUND:                -0.736
REMARK SMILES Cc1ccc(C(=O)c2cc(O)c(O)c([N+](=O)[O-])c2)cc1
REMARK SMILES IDX 8 1 18 2 9 3 14 4 10 5 12 6 6 7 7 8 5 9 4 10 19 11 3 12
REMARK SMILES IDX 20 13 2 14 1 15 15 16 17 17 16 18 11 19 13 21
REMARK H PARENT 11 20 13 22
ROOT
ATOM      1  C   UNL     1      -9.955  17.198   6.257  1.00  0.00     0.033 A 
ATOM      2  C   UNL     1      -9.437  17.070   7.525  1.00  0.00     0.102 A 
ATOM      3  C   UNL     1     -11.240  17.623   6.015  1.00  0.00     0.063 A 
ATOM      4  C   UNL     1     -10.251  17.386   8.613  1.00  0.00     0.315 A 
ATOM      5  C   UNL     1     -12.054  17.939   7.104  1.00  0.00     0.165 A 
ATOM      6  C   UNL     1     -11.559  17.821   8.403  1.00  0.00     0.237 A 
ENDROOT
BRANCH   1   7
ATOM      7  C   UNL     1      -9.084  16.859   5.092  1.00  0.00     0.193 C 
ATOM      8  O   UNL     1      -8.721  17.794   4.362  1.00  0.00    -0.289 OA
BRANCH   7   9
ATOM      9  C   UNL     1      -8.665  15.497   4.802  1.00  0.00     0.023 A 
ATOM     10  C   UNL     1      -7.367  15.087   5.108  1.00  0.00     0.012 A 
ATOM     11  C   UNL     1      -9.560  14.601   4.218  1.00  0.00     0.012 A 
ATOM     12  C   UNL     1      -6.965  13.781   4.830  1.00  0.00     0.004 A 
ATOM     13  C   UNL     1      -9.158  13.294   3.940  1.00  0.00     0.004 A 
ATOM     14  C   UNL     1      -7.860  12.884   4.246  1.00  0.00    -0.051 A 
ATOM     15  C   UNL     1      -7.429  11.488   3.948  1.00  0.00     0.044 C 
ENDBRANCH   7   9
ENDBRANCH   1   7
BRANCH   4  16
ATOM     16  N   UNL     1      -9.729  17.259   9.930  1.00  0.00     0.066 N 
ATOM     17  O   UNL     1      -9.711  18.268  10.675  1.00  0.00    -0.258 OA
ATOM     18  O   UNL     1      -9.303  16.142  10.307  1.00  0.00    -0.258 OA
ENDBRANCH   4  16
BRANCH   5  19
ATOM     19  O   UNL     1     -13.330  18.363   6.883  1.00  0.00    -0.504 OA
ATOM     20  H   UNL     1     -13.838  17.655   6.453  1.00  0.00     0.293 HD
ENDBRANCH   5  19
BRANCH   6  21
ATOM     21  O   UNL     1     -12.365  18.133   9.459  1.00  0.00    -0.500 OA
ATOM     22  H   UNL     1     -12.038  18.938   9.891  1.00  0.00     0.294 HD
ENDBRANCH   6  21
TORSDOF 5
ENDMDL
MODEL 4
REMARK VINA RESULT:    -4.944      8.841     12.567
REMARK INTER + INTRA:          -6.837
REMARK INTER:                  -6.448
REMARK INTRA:                  -0.389
REMARK UNBOUND:                -0.736
REMARK SMILES Cc1ccc(C(=O)c2cc(O)c(O)c([N+](=O)[O-])c2)cc1
REMARK SMILES IDX 8 1 18 2 9 3 14 4 10 5 12 6 6 7 7 8 5 9 4 10 19 11 3 12
REMARK SMILES IDX 20 13 2 14 1 15 15 16 17 17 16 18 11 19 13 21
REMARK H PARENT 11 20 13 22
ROOT
ATOM      1  C   UNL     1      -8.926  17.149   7.163  1.00  0.00     0.033 A 
ATOM      2  C   UNL     1     -10.086  17.529   6.529  1.00  0.00     0.102 A 
ATOM      3  C   UNL     1      -8.767  17.203   8.527  1.00  0.00     0.063 A 
ATOM      4  C   UNL     1     -11.149  17.990   7.306  1.00  0.00     0.315 A 
ATOM      5  C   UNL     1      -9.830  17.665   9.304  1.00  0.00     0.165 A 
ATOM      6  C   UNL     1     -11.022  18.058   8.693  1.00  0.00     0.237 A 
ENDROOT
BRANCH   1   7
ATOM      7  C   UNL     1      -7.787  16.655   6.331  1.00  0.00     0.193 C 
ATOM      8  O   UNL     1      -6.739  17.319   6.350  1.00  0.00    -0.289 OA
BRANCH   7   9
ATOM      9  C   UNL     1      -7.876  15.449   5.523  1.00  0.00     0.023 A 
ATOM     10  C   UNL     1      -9.107  15.049   5.001  1.00  0.00     0.012 A 
ATOM     11  C   UNL     1      -6.732  14.693   5.269  1.00  0.00     0.012 A 
ATOM     12  C   UNL     1      -9.192  13.893   4.226  1.00  0.00     0.004 A 
ATOM     13  C   UNL     1      -6.817  13.536   4.494  1.00  0.00     0.004 A 
ATOM     14  C   UNL     1      -8.047  13.136   3.972  1.00  0.00    -0.051 A 
ATOM     15  C   UNL     1      -8.140  11.899   3.145  1.00  0.00     0.044 C 
ENDBRANCH   7   9
ENDBRANCH   1   7
BRANCH   4  16
ATOM     16  N   UNL     1     -12.356  18.386   6.666  1.00  0.00     0.066 N 
ATOM     17  O   UNL     1     -13.450  17.995   7.140  1.00  0.00    -0.258 OA
ATOM     18  O   UNL     1     -12.290  19.115   5.649  1.00  0.00    -0.258 OA
ENDBRANCH   4  16
BRANCH   5  19
ATOM     19  O   UNL     1      -9.691  17.725  10.658  1.00  0.00    -0.504 OA
ATOM     20  H   UNL     1      -9.248  16.921  10.976  1.00  0.00     0.293 HD
ENDBRANCH   5  19
BRANCH   6  21
ATOM     21  O   UNL     1     -12.055  18.507   9.464  1.00  0.00    -0.500 OA
ATOM     22  H   UNL     1     -12.062  19.476   9.467  1.00  0.00     0.294 HD
ENDBRANCH   6  21
TORSDOF 5
ENDMDL
MODEL 5
REMARK VINA RESULT:    -4.577      1.829      1.976
REMARK INTER + INTRA:          -6.384
REMARK INTER:                  -5.931
REMARK INTRA:                  -0.453
REMARK UNBOUND:                -0.736
REMARK SMILES Cc1ccc(C(=O)c2cc(O)c(O)c([N+](=O)[O-])c2)cc1
REMARK SMILES IDX 8 1 18 2 9 3 14 4 10 5 12 6 6 7 7 8 5 9 4 10 19 11 3 12
REMARK SMILES IDX 20 13 2 14 1 15 15 16 17 17 16 18 11 19 13 21
REMARK H PARENT 11 20 13 22
ROOT
ATOM      1  C   UNL     1      -3.881   8.201   0.027  1.00  0.00     0.033 A 
ATOM      2  C   UNL     1      -4.139   7.385   1.104  1.00  0.00     0.102 A 
ATOM      3  C   UNL     1      -3.519   7.715  -1.207  1.00  0.00     0.063 A 
ATOM      4  C   UNL     1      -4.030   6.005   0.937  1.00  0.00     0.315 A 
ATOM      5  C   UNL     1      -3.409   6.335  -1.375  1.00  0.00     0.165 A 
ATOM      6  C   UNL     1      -3.665   5.479  -0.303  1.00  0.00     0.237 A 
ENDROOT
BRANCH   1   7
ATOM      7  C   UNL     1      -3.998   9.680   0.206  1.00  0.00     0.193 C 
ATOM      8  O   UNL     1      -2.952  10.311   0.423  1.00  0.00    -0.289 OA
BRANCH   7   9
ATOM      9  C   UNL     1      -5.273  10.375   0.135  1.00  0.00     0.023 A 
ATOM     10  C   UNL     1      -5.326  11.686  -0.339  1.00  0.00     0.012 A 
ATOM     11  C   UNL     1      -6.442   9.732   0.539  1.00  0.00     0.012 A 
ATOM     12  C   UNL     1      -6.549  12.353  -0.408  1.00  0.00     0.004 A 
ATOM     13  C   UNL     1      -7.666  10.399   0.471  1.00  0.00     0.004 A 
ATOM     14  C   UNL     1      -7.719  11.710  -0.003  1.00  0.00    -0.051 A 
ATOM     15  C   UNL     1      -9.026  12.424  -0.076  1.00  0.00     0.044 C 
ENDBRANCH   7   9
ENDBRANCH   1   7
BRANCH   4  16
ATOM     16  N   UNL     1      -4.294   5.149   2.041  1.00  0.00     0.066 N 
ATOM     17  O   UNL     1      -3.334   4.759   2.749  1.00  0.00    -0.258 OA
ATOM     18  O   UNL     1      -5.477   4.809   2.274  1.00  0.00    -0.258 OA
ENDBRANCH   4  16
BRANCH   5  19
ATOM     19  O   UNL     1      -3.052   5.835  -2.591  1.00  0.00    -0.504 OA
ATOM     20  H   UNL     1      -2.358   5.165  -2.477  1.00  0.00     0.293 HD
ENDBRANCH   5  19
BRANCH   6  21
ATOM     21  O   UNL     1      -3.554   4.130  -0.479  1.00  0.00    -0.500 OA
ATOM     22  H   UNL     1      -3.318   3.940  -1.400  1.00  0.00     0.294 HD
ENDBRANCH   6  21
TORSDOF 5
ENDMDL
MODEL 6
REMARK VINA RESULT:    -4.551      1.648      3.120
REMARK INTER + INTRA:          -6.352
REMARK INTER:                  -5.731
REMARK INTRA:                  -0.621
REMARK UNBOUND:                -0.736
REMARK SMILES Cc1ccc(C(=O)c2cc(O)c(O)c([N+](=O)[O-])c2)cc1
REMARK SMILES IDX 8 1 18 2 9 3 14 4 10 5 12 6 6 7 7 8 5 9 4 10 19 11 3 12
REMARK SMILES IDX 20 13 2 14 1 15 15 16 17 17 16 18 11 19 13 21
REMARK H PARENT 11 20 13 22
ROOT
ATOM      1  C   UNL     1      -5.954   6.806   0.664  1.00  0.00     0.033 A 
ATOM      2  C   UNL     1      -5.313   6.977  -0.541  1.00  0.00     0.102 A 
ATOM      3  C   UNL     1      -5.404   6.103   1.710  1.00  0.00     0.063 A 
ATOM      4  C   UNL     1      -4.049   6.412  -0.709  1.00  0.00     0.315 A 
ATOM      5  C   UNL     1      -4.140   5.538   1.541  1.00  0.00     0.165 A 
ATOM      6  C   UNL     1      -3.462   5.693   0.331  1.00  0.00     0.237 A 
ENDROOT
BRANCH   1   7
ATOM      7  C   UNL     1      -7.309   7.411   0.845  1.00  0.00     0.193 C 
ATOM      8  O   UNL     1      -8.289   6.667   0.693  1.00  0.00    -0.289 OA
BRANCH   7   9
ATOM      9  C   UNL     1      -7.498   8.812   1.186  1.00  0.00     0.023 A 
ATOM     10  C   UNL     1      -8.550   9.191   2.020  1.00  0.00     0.012 A 
ATOM     11  C   UNL     1      -6.628   9.777   0.678  1.00  0.00     0.012 A 
ATOM     12  C   UNL     1      -8.731  10.535   2.347  1.00  0.00     0.004 A 
ATOM     13  C   UNL     1      -6.809  11.121   1.005  1.00  0.00     0.004 A 
ATOM     14  C   UNL     1      -7.860  11.500   1.840  1.00  0.00    -0.051 A 
ATOM     15  C   UNL     1      -8.055  12.937   2.188  1.00  0.00     0.044 C 
ENDBRANCH   7   9
ENDBRANCH   1   7
BRANCH   4  16
ATOM     16  N   UNL     1      -3.374   6.580  -1.949  1.00  0.00     0.066 N 
ATOM     17  O   UNL     1      -3.083   5.563  -2.623  1.00  0.00    -0.258 OA
ATOM     18  O   UNL     1      -3.090   7.739  -2.332  1.00  0.00    -0.258 OA
ENDBRANCH   4  16
BRANCH   5  19
ATOM     19  O   UNL     1      -3.579   4.838   2.567  1.00  0.00    -0.504 OA
ATOM     20  H   UNL     1      -4.139   4.913   3.357  1.00  0.00     0.293 HD
ENDBRANCH   5  19
BRANCH   6  21
ATOM     21  O   UNL     1      -2.225   5.135   0.179  1.00  0.00    -0.500 OA
ATOM     22  H   UNL     1      -2.198   4.275   0.625  1.00  0.00     0.294 HD
ENDBRANCH   6  21
TORSDOF 5
ENDMDL
MODEL 7
REMARK VINA RESULT:    -4.480      3.756      7.005
REMARK INTER + INTRA:          -6.264
REMARK INTER:                  -5.305
REMARK INTRA:                  -0.959
REMARK UNBOUND:                -0.736
REMARK SMILES Cc1ccc(C(=O)c2cc(O)c(O)c([N+](=O)[O-])c2)cc1
REMARK SMILES IDX 8 1 18 2 9 3 14 4 10 5 12 6 6 7 7 8 5 9 4 10 19 11 3 12
REMARK SMILES IDX 20 13 2 14 1 15 15 16 17 17 16 18 11 19 13 21
REMARK H PARENT 11 20 13 22
ROOT
ATOM      1  C   UNL     1      -6.792  11.126   0.580  1.00  0.00     0.033 A 
ATOM      2  C   UNL     1      -7.610  11.624  -0.408  1.00  0.00     0.102 A 
ATOM      3  C   UNL     1      -6.899  11.503   1.897  1.00  0.00     0.063 A 
ATOM      4  C   UNL     1      -8.591  12.551  -0.057  1.00  0.00     0.315 A 
ATOM      5  C   UNL     1      -7.880  12.431   2.248  1.00  0.00     0.165 A 
ATOM      6  C   UNL     1      -8.726  12.955   1.271  1.00  0.00     0.237 A 
ENDROOT
BRANCH   1   7
ATOM      7  C   UNL     1      -5.741  10.133   0.204  1.00  0.00     0.193 C 
ATOM      8  O   UNL     1      -4.954  10.452  -0.700  1.00  0.00    -0.289 OA
BRANCH   7   9
ATOM      9  C   UNL     1      -5.623   8.838   0.855  1.00  0.00     0.023 A 
ATOM     10  C   UNL     1      -4.418   8.463   1.450  1.00  0.00     0.012 A 
ATOM     11  C   UNL     1      -6.715   7.971   0.887  1.00  0.00     0.012 A 
ATOM     12  C   UNL     1      -4.305   7.222   2.074  1.00  0.00     0.004 A 
ATOM     13  C   UNL     1      -6.603   6.729   1.512  1.00  0.00     0.004 A 
ATOM     14  C   UNL     1      -5.398   6.354   2.106  1.00  0.00    -0.051 A 
ATOM     15  C   UNL     1      -5.276   5.026   2.773  1.00  0.00     0.044 C 
ENDBRANCH   7   9
ENDBRANCH   1   7
BRANCH   4  16
ATOM     16  N   UNL     1      -9.444  13.075  -1.067  1.00  0.00     0.066 N 
ATOM     17  O   UNL     1      -9.966  14.203  -0.895  1.00  0.00    -0.258 OA
ATOM     18  O   UNL     1      -9.648  12.395  -2.100  1.00  0.00    -0.258 OA
ENDBRANCH   4  16
BRANCH   5  19
ATOM     19  O   UNL     1      -8.001  12.815   3.550  1.00  0.00    -0.504 OA
ATOM     20  H   UNL     1      -8.880  12.570   3.881  1.00  0.00     0.293 HD
ENDBRANCH   5  19
BRANCH   6  21
ATOM     21  O   UNL     1      -9.682  13.861   1.627  1.00  0.00    -0.500 OA
ATOM     22  H   UNL     1      -9.880  13.773   2.572  1.00  0.00     0.294 HD
ENDBRANCH   6  21
TORSDOF 5
ENDMDL
MODEL 8
REMARK VINA RESULT:    -4.450      3.613      6.484
REMARK INTER + INTRA:          -6.226
REMARK INTER:                  -5.329
REMARK INTRA:                  -0.897
REMARK UNBOUND:                -0.736
REMARK SMILES Cc1ccc(C(=O)c2cc(O)c(O)c([N+](=O)[O-])c2)cc1
REMARK SMILES IDX 8 1 18 2 9 3 14 4 10 5 12 6 6 7 7 8 5 9 4 10 19 11 3 12
REMARK SMILES IDX 20 13 2 14 1 15 15 16 17 17 16 18 11 19 13 21
REMARK H PARENT 11 20 13 22
ROOT
ATOM      1  C   UNL     1      -6.510  11.060   0.211  1.00  0.00     0.033 A 
ATOM      2  C   UNL     1      -6.951  11.469   1.448  1.00  0.00     0.102 A 
ATOM      3  C   UNL     1      -7.093  11.472  -0.964  1.00  0.00     0.063 A 
ATOM      4  C   UNL     1      -8.037  12.342   1.513  1.00  0.00     0.315 A 
ATOM      5  C   UNL     1      -8.180  12.345  -0.899  1.00  0.00     0.165 A 
ATOM      6  C   UNL     1      -8.651  12.781   0.340  1.00  0.00     0.237 A 
ENDROOT
BRANCH   1   7
ATOM      7  C   UNL     1      -5.347  10.124   0.141  1.00  0.00     0.193 C 
ATOM      8  O   UNL     1      -4.361  10.491  -0.517  1.00  0.00    -0.289 OA
BRANCH   7   9
ATOM      9  C   UNL     1      -5.345   8.832   0.806  1.00  0.00     0.023 A 
ATOM     10  C   UNL     1      -6.497   8.045   0.806  1.00  0.00     0.012 A 
ATOM     11  C   UNL     1      -4.192   8.378   1.445  1.00  0.00     0.012 A 
ATOM     12  C   UNL     1      -6.495   6.805   1.444  1.00  0.00     0.004 A 
ATOM     13  C   UNL     1      -4.189   7.137   2.084  1.00  0.00     0.004 A 
ATOM     14  C   UNL     1      -5.340   6.350   2.084  1.00  0.00    -0.051 A 
ATOM     15  C   UNL     1      -5.339   5.026   2.767  1.00  0.00     0.044 C 
ENDBRANCH   7   9
ENDBRANCH   1   7
BRANCH   4  16
ATOM     16  N   UNL     1      -8.504  12.775   2.785  1.00  0.00     0.066 N 
ATOM     17  O   UNL     1      -8.376  12.009   3.770  1.00  0.00    -0.258 OA
ATOM     18  O   UNL     1      -9.029  13.908   2.884  1.00  0.00    -0.258 OA
ENDBRANCH   4  16
BRANCH   5  19
ATOM     19  O   UNL     1      -8.770  12.766  -2.053  1.00  0.00    -0.504 OA
ATOM     20  H   UNL     1      -8.203  13.425  -2.486  1.00  0.00     0.293 HD
ENDBRANCH   5  19
BRANCH   6  21
ATOM     21  O   UNL     1      -9.714  13.635   0.391  1.00  0.00    -0.500 OA
ATOM     22  H   UNL     1      -9.526  14.354   1.015  1.00  0.00     0.294 HD
ENDBRANCH   6  21
TORSDOF 5
ENDMDL
MODEL 9
REMARK VINA RESULT:    -4.433      2.341      4.063
REMARK INTER + INTRA:          -6.206
REMARK INTER:                  -5.237
REMARK INTRA:                  -0.969
REMARK UNBOUND:                -0.736
REMARK SMILES Cc1ccc(C(=O)c2cc(O)c(O)c([N+](=O)[O-])c2)cc1
REMARK SMILES IDX 8 1 18 2 9 3 14 4 10 5 12 6 6 7 7 8 5 9 4 10 19 11 3 12
REMARK SMILES IDX 20 13 2 14 1 15 15 16 17 17 16 18 11 19 13 21
REMARK H PARENT 11 20 13 22
ROOT
ATOM      1  C   UNL     1      -7.782  10.074   1.258  1.00  0.00     0.033 A 
ATOM      2  C   UNL     1      -6.542   9.603   0.894  1.00  0.00     0.102 A 
ATOM      3  C   UNL     1      -8.803   9.248   1.666  1.00  0.00     0.063 A 
ATOM      4  C   UNL     1      -6.309   8.229   0.941  1.00  0.00     0.315 A 
ATOM      5  C   UNL     1      -8.571   7.873   1.712  1.00  0.00     0.165 A 
ATOM      6  C   UNL     1      -7.323   7.363   1.350  1.00  0.00     0.237 A 
ENDROOT
BRANCH   1   7
ATOM      7  C   UNL     1      -8.031  11.546   1.208  1.00  0.00     0.193 C 
ATOM      8  O   UNL     1      -8.247  12.049   0.095  1.00  0.00    -0.289 OA
BRANCH   7   9
ATOM      9  C   UNL     1      -8.027  12.379   2.400  1.00  0.00     0.023 A 
ATOM     10  C   UNL     1      -9.109  13.216   2.670  1.00  0.00     0.012 A 
ATOM     11  C   UNL     1      -6.940  12.340   3.274  1.00  0.00     0.012 A 
ATOM     12  C   UNL     1      -9.105  14.014   3.814  1.00  0.00     0.004 A 
ATOM     13  C   UNL     1      -6.936  13.138   4.419  1.00  0.00     0.004 A 
ATOM     14  C   UNL     1      -8.018  13.976   4.689  1.00  0.00    -0.051 A 
ATOM     15  C   UNL     1      -8.014  14.830   5.910  1.00  0.00     0.044 C 
ENDBRANCH   7   9
ENDBRANCH   1   7
BRANCH   4  16
ATOM     16  N   UNL     1      -5.032   7.728   0.567  1.00  0.00     0.066 N 
ATOM     17  O   UNL     1      -4.970   6.696  -0.144  1.00  0.00    -0.258 OA
ATOM     18  O   UNL     1      -4.006   8.332   0.958  1.00  0.00    -0.258 OA
ENDBRANCH   4  16
BRANCH   5  19
ATOM     19  O   UNL     1      -9.571   7.040   2.114  1.00  0.00    -0.504 OA
ATOM     20  H   UNL     1      -9.188   6.230   2.490  1.00  0.00     0.293 HD
ENDBRANCH   5  19
BRANCH   6  21
ATOM     21  O   UNL     1      -7.108   6.017   1.400  1.00  0.00    -0.500 OA
ATOM     22  H   UNL     1      -7.615   5.579   0.698  1.00  0.00     0.294 HD
ENDBRANCH   6  21
TORSDOF 5
ENDMDL
