MODEL 1
REMARK VINA RESULT:    -6.919      0.000      0.000
REMARK INTER + INTRA:          -8.700
REMARK INTER:                  -8.133
REMARK INTRA:                  -0.567
REMARK UNBOUND:                -0.567
REMARK SMILES O=C(O)c1cc(-c2ccc(F)cc2F)ccc1O
REMARK SMILES IDX 6 1 5 2 15 3 4 4 17 5 16 6 7 7 13 8 12 9 8 10 10 11 9 12
REMARK SMILES IDX 14 13 11 14 2 15 1 16 3 17 18 19
REMARK H PARENT 3 18 18 20
ROOT
ATOM      1  C   UNL     1      -5.353   8.208   0.473  1.00  0.00    -0.014 A 
ATOM      2  C   UNL     1      -4.594   8.060  -0.687  1.00  0.00     0.028 A 
ATOM      3  C   UNL     1      -5.299   7.235   1.471  1.00  0.00     0.013 A 
ATOM      4  C   UNL     1      -3.779   6.939  -0.850  1.00  0.00     0.102 A 
ATOM      5  C   UNL     1      -3.725   5.966   0.148  1.00  0.00     0.130 A 
ATOM      6  C   UNL     1      -4.485   6.114   1.309  1.00  0.00     0.048 A 
ENDROOT
BRANCH   1   7
ATOM      7  C   UNL     1      -6.199   9.370   0.643  1.00  0.00     0.018 A 
ATOM      8  C   UNL     1      -5.719  10.639   0.317  1.00  0.00     0.133 A 
ATOM      9  C   UNL     1      -6.538  11.757   0.482  1.00  0.00     0.079 A 
ATOM     10  C   UNL     1      -7.497   9.219   1.131  1.00  0.00     0.015 A 
ATOM     11  C   UNL     1      -7.835  11.605   0.971  1.00  0.00     0.126 A 
ATOM     12  C   UNL     1      -8.314  10.336   1.295  1.00  0.00     0.040 A 
ATOM     13  F   UNL     1      -4.474  10.802  -0.151  1.00  0.00    -0.206 F 
ATOM     14  F   UNL     1      -8.621  12.677   1.130  1.00  0.00    -0.207 F 
ENDBRANCH   1   7
BRANCH   4  15
ATOM     15  C   UNL     1      -2.994   6.804  -2.069  1.00  0.00     0.339 C 
ATOM     16  O   UNL     1      -3.000   5.824  -2.817  1.00  0.00    -0.246 OA
BRANCH  15  17
ATOM     17  O   UNL     1      -2.225   7.900  -2.314  1.00  0.00    -0.478 OA
ATOM     18  H   UNL     1      -2.406   8.281  -3.199  1.00  0.00     0.297 HD
ENDBRANCH  15  17
ENDBRANCH   4  15
BRANCH   5  19
ATOM     19  O   UNL     1      -2.935   4.864   0.008  1.00  0.00    -0.507 OA
ATOM     20  H   UNL     1      -2.100   5.124  -0.416  1.00  0.00     0.293 HD
ENDBRANCH   5  19
TORSDOF 4
ENDMDL
MODEL 2
REMARK VINA RESULT:    -6.880      1.666      3.160
REMARK INTER + INTRA:          -8.654
REMARK INTER:                  -8.062
REMARK INTRA:                  -0.592
REMARK UNBOUND:                -0.567
REMARK SMILES O=C(O)c1cc(-c2ccc(F)cc2F)ccc1O
REMARK SMILES IDX 6 1 5 2 15 3 4 4 17 5 16 6 7 7 13 8 12 9 8 10 10 11 9 12
REMARK SMILES IDX 14 13 11 14 2 15 1 16 3 17 18 19
REMARK H PARENT 3 18 18 20
ROOT
ATOM      1  C   UNL     1      -5.437   8.201   0.444  1.00  0.00    -0.014 A 
ATOM      2  C   UNL     1      -5.413   7.257   1.470  1.00  0.00     0.028 A 
ATOM      3  C   UNL     1      -4.666   8.004  -0.702  1.00  0.00     0.013 A 
ATOM      4  C   UNL     1      -4.618   6.117   1.352  1.00  0.00     0.102 A 
ATOM      5  C   UNL     1      -3.847   5.921   0.207  1.00  0.00     0.130 A 
ATOM      6  C   UNL     1      -3.871   6.865  -0.821  1.00  0.00     0.048 A 
ENDROOT
BRANCH   1   7
ATOM      7  C   UNL     1      -6.260   9.384   0.566  1.00  0.00     0.018 A 
ATOM      8  C   UNL     1      -7.568   9.282   1.042  1.00  0.00     0.133 A 
ATOM      9  C   UNL     1      -8.359  10.425   1.158  1.00  0.00     0.079 A 
ATOM     10  C   UNL     1      -5.743  10.629   0.209  1.00  0.00     0.015 A 
ATOM     11  C   UNL     1      -7.842  11.670   0.800  1.00  0.00     0.126 A 
ATOM     12  C   UNL     1      -6.534  11.772   0.326  1.00  0.00     0.040 A 
ATOM     13  F   UNL     1      -8.081   8.092   1.387  1.00  0.00    -0.206 F 
ATOM     14  F   UNL     1      -8.600  12.768   0.911  1.00  0.00    -0.207 F 
ENDBRANCH   1   7
BRANCH   4  15
ATOM     15  C   UNL     1      -4.608   5.144   2.435  1.00  0.00     0.339 C 
ATOM     16  O   UNL     1      -3.597   4.670   2.960  1.00  0.00    -0.246 OA
BRANCH  15  17
ATOM     17  O   UNL     1      -5.862   4.793   2.830  1.00  0.00    -0.478 OA
ATOM     18  H   UNL     1      -5.857   4.330   3.694  1.00  0.00     0.297 HD
ENDBRANCH  15  17
ENDBRANCH   4  15
BRANCH   5  19
ATOM     19  O   UNL     1      -3.064   4.813   0.071  1.00  0.00    -0.507 OA
ATOM     20  H   UNL     1      -3.605   4.082  -0.274  1.00  0.00     0.293 HD
ENDBRANCH   5  19
TORSDOF 4
ENDMDL
MODEL 3
REMARK VINA RESULT:    -6.859      1.252      2.724
REMARK INTER + INTRA:          -8.629
REMARK INTER:                  -8.051
REMARK INTRA:                  -0.578
REMARK UNBOUND:                -0.567
REMARK SMILES O=C(O)c1cc(-c2ccc(F)cc2F)ccc1O
REMARK SMILES IDX 6 1 5 2 15 3 4 4 17 5 16 6 7 7 13 8 12 9 8 10 10 11 9 12
REMARK SMILES IDX 14 13 11 14 2 15 1 16 3 17 18 19
REMARK H PARENT 3 18 18 20
ROOT
ATOM      1  C   UNL     1      -5.399   8.221   0.455  1.00  0.00    -0.014 A 
ATOM      2  C   UNL     1      -5.390   7.272   1.476  1.00  0.00     0.028 A 
ATOM      3  C   UNL     1      -4.620   8.024  -0.686  1.00  0.00     0.013 A 
ATOM      4  C   UNL     1      -4.603   6.126   1.358  1.00  0.00     0.102 A 
ATOM      5  C   UNL     1      -3.825   5.929   0.217  1.00  0.00     0.130 A 
ATOM      6  C   UNL     1      -3.834   6.879  -0.806  1.00  0.00     0.048 A 
ENDROOT
BRANCH   1   7
ATOM      7  C   UNL     1      -6.214   9.410   0.577  1.00  0.00     0.018 A 
ATOM      8  C   UNL     1      -5.687  10.658   0.241  1.00  0.00     0.133 A 
ATOM      9  C   UNL     1      -6.476  11.802   0.361  1.00  0.00     0.079 A 
ATOM     10  C   UNL     1      -7.528   9.307   1.032  1.00  0.00     0.015 A 
ATOM     11  C   UNL     1      -7.790  11.699   0.817  1.00  0.00     0.126 A 
ATOM     12  C   UNL     1      -8.316  10.451   1.151  1.00  0.00     0.040 A 
ATOM     13  F   UNL     1      -4.425  10.774  -0.194  1.00  0.00    -0.206 F 
ATOM     14  F   UNL     1      -8.548  12.797   0.932  1.00  0.00    -0.207 F 
ENDBRANCH   1   7
BRANCH   4  15
ATOM     15  C   UNL     1      -4.609   5.146   2.435  1.00  0.00     0.339 C 
ATOM     16  O   UNL     1      -3.605   4.666   2.969  1.00  0.00    -0.246 OA
BRANCH  15  17
ATOM     17  O   UNL     1      -5.869   4.799   2.814  1.00  0.00    -0.478 OA
ATOM     18  H   UNL     1      -6.537   5.076   2.153  1.00  0.00     0.297 HD
ENDBRANCH  15  17
ENDBRANCH   4  15
BRANCH   5  19
ATOM     19  O   UNL     1      -3.050   4.816   0.081  1.00  0.00    -0.507 OA
ATOM     20  H   UNL     1      -2.677   4.582   0.949  1.00  0.00     0.293 HD
ENDBRANCH   5  19
TORSDOF 4
ENDMDL
MODEL 4
REMARK VINA RESULT:    -5.348      4.229      6.503
REMARK INTER + INTRA:          -6.854
REMARK INTER:                  -5.788
REMARK INTRA:                  -1.065
REMARK UNBOUND:                -0.567
REMARK SMILES O=C(O)c1cc(-c2ccc(F)cc2F)ccc1O
REMARK SMILES IDX 6 1 5 2 15 3 4 4 17 5 16 6 7 7 13 8 12 9 8 10 10 11 9 12
REMARK SMILES IDX 14 13 11 14 2 15 1 16 3 17 18 19
REMARK H PARENT 3 18 18 20
ROOT
ATOM      1  C   UNL     1      -6.954  10.353   0.774  1.00  0.00    -0.014 A 
ATOM      2  C   UNL     1      -7.601  10.921  -0.323  1.00  0.00     0.028 A 
ATOM      3  C   UNL     1      -7.105  10.916   2.041  1.00  0.00     0.013 A 
ATOM      4  C   UNL     1      -8.399  12.053  -0.153  1.00  0.00     0.102 A 
ATOM      5  C   UNL     1      -8.549  12.616   1.114  1.00  0.00     0.130 A 
ATOM      6  C   UNL     1      -7.902  12.047   2.212  1.00  0.00     0.048 A 
ENDROOT
BRANCH   1   7
ATOM      7  C   UNL     1      -6.125   9.180   0.599  1.00  0.00     0.018 A 
ATOM      8  C   UNL     1      -6.640   7.912   0.870  1.00  0.00     0.133 A 
ATOM      9  C   UNL     1      -5.837   6.783   0.700  1.00  0.00     0.079 A 
ATOM     10  C   UNL     1      -4.810   9.319   0.156  1.00  0.00     0.015 A 
ATOM     11  C   UNL     1      -4.522   6.922   0.259  1.00  0.00     0.126 A 
ATOM     12  C   UNL     1      -4.009   8.191  -0.014  1.00  0.00     0.040 A 
ATOM     13  F   UNL     1      -7.901   7.761   1.299  1.00  0.00    -0.206 F 
ATOM     14  F   UNL     1      -3.751   5.840   0.095  1.00  0.00    -0.207 F 
ENDBRANCH   1   7
BRANCH   4  15
ATOM     15  C   UNL     1      -9.066  12.631  -1.312  1.00  0.00     0.339 C 
ATOM     16  O   UNL     1      -9.965  13.474  -1.270  1.00  0.00    -0.246 OA
BRANCH  15  17
ATOM     17  O   UNL     1      -8.587  12.137  -2.486  1.00  0.00    -0.478 OA
ATOM     18  H   UNL     1      -8.951  11.248  -2.683  1.00  0.00     0.297 HD
ENDBRANCH  15  17
ENDBRANCH   4  15
BRANCH   5  19
ATOM     19  O   UNL     1      -9.325  13.721   1.301  1.00  0.00    -0.507 OA
ATOM     20  H   UNL     1     -10.148  13.459   1.749  1.00  0.00     0.293 HD
ENDBRANCH   5  19
TORSDOF 4
ENDMDL
MODEL 5
REMARK VINA RESULT:    -5.330      4.550      6.897
REMARK INTER + INTRA:          -6.832
REMARK INTER:                  -5.771
REMARK INTRA:                  -1.061
REMARK UNBOUND:                -0.567
REMARK SMILES O=C(O)c1cc(-c2ccc(F)cc2F)ccc1O
REMARK SMILES IDX 6 1 5 2 15 3 4 4 17 5 16 6 7 7 13 8 12 9 8 10 10 11 9 12
REMARK SMILES IDX 14 13 11 14 2 15 1 16 3 17 18 19
REMARK H PARENT 3 18 18 20
ROOT
ATOM      1  C   UNL     1      -6.946  10.312   0.794  1.00  0.00    -0.014 A 
ATOM      2  C   UNL     1      -7.130  10.877   2.055  1.00  0.00     0.028 A 
ATOM      3  C   UNL     1      -7.552  10.887  -0.323  1.00  0.00     0.013 A 
ATOM      4  C   UNL     1      -7.921  12.017   2.200  1.00  0.00     0.102 A 
ATOM      5  C   UNL     1      -8.527  12.592   1.083  1.00  0.00     0.130 A 
ATOM      6  C   UNL     1      -8.342  12.027  -0.179  1.00  0.00     0.048 A 
ENDROOT
BRANCH   1   7
ATOM      7  C   UNL     1      -6.127   9.128   0.642  1.00  0.00     0.018 A 
ATOM      8  C   UNL     1      -6.663   7.867   0.907  1.00  0.00     0.133 A 
ATOM      9  C   UNL     1      -5.870   6.729   0.760  1.00  0.00     0.079 A 
ATOM     10  C   UNL     1      -4.801   9.250   0.230  1.00  0.00     0.015 A 
ATOM     11  C   UNL     1      -4.543   6.851   0.349  1.00  0.00     0.126 A 
ATOM     12  C   UNL     1      -4.009   8.112   0.083  1.00  0.00     0.040 A 
ATOM     13  F   UNL     1      -7.936   7.733   1.306  1.00  0.00    -0.206 F 
ATOM     14  F   UNL     1      -3.781   5.759   0.207  1.00  0.00    -0.207 F 
ENDBRANCH   1   7
BRANCH   4  15
ATOM     15  C   UNL     1      -8.101  12.592   3.526  1.00  0.00     0.339 C 
ATOM     16  O   UNL     1      -8.987  13.388   3.845  1.00  0.00    -0.246 OA
BRANCH  15  17
ATOM     17  O   UNL     1      -7.167  12.152   4.413  1.00  0.00    -0.478 OA
ATOM     18  H   UNL     1      -7.510  11.423   4.972  1.00  0.00     0.297 HD
ENDBRANCH  15  17
ENDBRANCH   4  15
BRANCH   5  19
ATOM     19  O   UNL     1      -9.303  13.707   1.204  1.00  0.00    -0.507 OA
ATOM     20  H   UNL     1      -9.563  13.813   2.135  1.00  0.00     0.293 HD
ENDBRANCH   5  19
TORSDOF 4
ENDMDL
MODEL 6
REMARK VINA RESULT:    -5.247      1.702      2.992
REMARK INTER + INTRA:          -6.735
REMARK INTER:                  -6.235
REMARK INTRA:                  -0.500
REMARK UNBOUND:                -0.567
REMARK SMILES O=C(O)c1cc(-c2ccc(F)cc2F)ccc1O
REMARK SMILES IDX 6 1 5 2 15 3 4 4 17 5 16 6 7 7 13 8 12 9 8 10 10 11 9 12
REMARK SMILES IDX 14 13 11 14 2 15 1 16 3 17 18 19
REMARK H PARENT 3 18 18 20
ROOT
ATOM      1  C   UNL     1      -5.584   8.483   0.427  1.00  0.00    -0.014 A 
ATOM      2  C   UNL     1      -5.560   7.556   1.468  1.00  0.00     0.028 A 
ATOM      3  C   UNL     1      -4.790   8.284  -0.703  1.00  0.00     0.013 A 
ATOM      4  C   UNL     1      -4.742   6.429   1.380  1.00  0.00     0.102 A 
ATOM      5  C   UNL     1      -3.949   6.229   0.251  1.00  0.00     0.130 A 
ATOM      6  C   UNL     1      -3.973   7.157  -0.792  1.00  0.00     0.048 A 
ENDROOT
BRANCH   1   7
ATOM      7  C   UNL     1      -6.431   9.653   0.517  1.00  0.00     0.018 A 
ATOM      8  C   UNL     1      -6.665  10.254   1.755  1.00  0.00     0.133 A 
ATOM      9  C   UNL     1      -7.482  11.381   1.838  1.00  0.00     0.079 A 
ATOM     10  C   UNL     1      -7.012  10.180  -0.635  1.00  0.00     0.015 A 
ATOM     11  C   UNL     1      -8.064  11.908   0.685  1.00  0.00     0.126 A 
ATOM     12  C   UNL     1      -7.828  11.307  -0.552  1.00  0.00     0.040 A 
ATOM     13  F   UNL     1      -6.116   9.758   2.873  1.00  0.00    -0.206 F 
ATOM     14  F   UNL     1      -8.848  12.990   0.764  1.00  0.00    -0.207 F 
ENDBRANCH   1   7
BRANCH   4  15
ATOM     15  C   UNL     1      -4.732   5.472   2.478  1.00  0.00     0.339 C 
ATOM     16  O   UNL     1      -3.761   4.796   2.827  1.00  0.00    -0.246 OA
BRANCH  15  17
ATOM     17  O   UNL     1      -5.937   5.392   3.107  1.00  0.00    -0.478 OA
ATOM     18  H   UNL     1      -6.500   4.685   2.727  1.00  0.00     0.297 HD
ENDBRANCH  15  17
ENDBRANCH   4  15
BRANCH   5  19
ATOM     19  O   UNL     1      -3.144   5.135   0.145  1.00  0.00    -0.507 OA
ATOM     20  H   UNL     1      -3.299   4.708  -0.716  1.00  0.00     0.293 HD
ENDBRANCH   5  19
TORSDOF 4
ENDMDL
MODEL 7
REMARK VINA RESULT:    -4.868      1.548      1.895
REMARK INTER + INTRA:          -6.290
REMARK INTER:                  -5.328
REMARK INTRA:                  -0.962
REMARK UNBOUND:                -0.567
REMARK SMILES O=C(O)c1cc(-c2ccc(F)cc2F)ccc1O
REMARK SMILES IDX 6 1 5 2 15 3 4 4 17 5 16 6 7 7 13 8 12 9 8 10 10 11 9 12
REMARK SMILES IDX 14 13 11 14 2 15 1 16 3 17 18 19
REMARK H PARENT 3 18 18 20
ROOT
ATOM      1  C   UNL     1      -6.380   9.156   0.653  1.00  0.00    -0.014 A 
ATOM      2  C   UNL     1      -5.208   9.282  -0.092  1.00  0.00     0.028 A 
ATOM      3  C   UNL     1      -6.864   7.890   0.984  1.00  0.00     0.013 A 
ATOM      4  C   UNL     1      -4.520   8.141  -0.508  1.00  0.00     0.102 A 
ATOM      5  C   UNL     1      -5.004   6.876  -0.178  1.00  0.00     0.130 A 
ATOM      6  C   UNL     1      -6.177   6.750   0.568  1.00  0.00     0.048 A 
ENDROOT
BRANCH   1   7
ATOM      7  C   UNL     1      -7.095  10.338   1.084  1.00  0.00     0.018 A 
ATOM      8  C   UNL     1      -7.727  11.155   0.146  1.00  0.00     0.133 A 
ATOM      9  C   UNL     1      -8.415  12.294   0.565  1.00  0.00     0.079 A 
ATOM     10  C   UNL     1      -7.152  10.660   2.440  1.00  0.00     0.015 A 
ATOM     11  C   UNL     1      -8.471  12.616   1.921  1.00  0.00     0.126 A 
ATOM     12  C   UNL     1      -7.840  11.798   2.858  1.00  0.00     0.040 A 
ATOM     13  F   UNL     1      -7.679  10.862  -1.162  1.00  0.00    -0.206 F 
ATOM     14  F   UNL     1      -9.131  13.709   2.324  1.00  0.00    -0.207 F 
ENDBRANCH   1   7
BRANCH   4  15
ATOM     15  C   UNL     1      -3.298   8.294  -1.286  1.00  0.00     0.339 C 
ATOM     16  O   UNL     1      -2.735   7.394  -1.914  1.00  0.00    -0.246 OA
BRANCH  15  17
ATOM     17  O   UNL     1      -2.820   9.567  -1.256  1.00  0.00    -0.478 OA
ATOM     18  H   UNL     1      -2.329   9.792  -2.074  1.00  0.00     0.297 HD
ENDBRANCH  15  17
ENDBRANCH   4  15
BRANCH   5  19
ATOM     19  O   UNL     1      -4.347   5.749  -0.574  1.00  0.00    -0.507 OA
ATOM     20  H   UNL     1      -4.998   5.055  -0.774  1.00  0.00     0.293 HD
ENDBRANCH   5  19
TORSDOF 4
ENDMDL
MODEL 8
REMARK VINA RESULT:    -4.079      6.156      8.529
REMARK INTER + INTRA:          -5.362
REMARK INTER:                  -4.294
REMARK INTRA:                  -1.068
REMARK UNBOUND:                -0.567
REMARK SMILES O=C(O)c1cc(-c2ccc(F)cc2F)ccc1O
REMARK SMILES IDX 6 1 5 2 15 3 4 4 17 5 16 6 7 7 13 8 12 9 8 10 10 11 9 12
REMARK SMILES IDX 14 13 11 14 2 15 1 16 3 17 18 19
REMARK H PARENT 3 18 18 20
ROOT
ATOM      1  C   UNL     1      -7.941  12.834   3.164  1.00  0.00    -0.014 A 
ATOM      2  C   UNL     1      -9.135  13.542   3.032  1.00  0.00     0.028 A 
ATOM      3  C   UNL     1      -7.109  13.067   4.259  1.00  0.00     0.013 A 
ATOM      4  C   UNL     1      -9.498  14.484   3.995  1.00  0.00     0.102 A 
ATOM      5  C   UNL     1      -8.666  14.717   5.090  1.00  0.00     0.130 A 
ATOM      6  C   UNL     1      -7.471  14.008   5.222  1.00  0.00     0.048 A 
ENDROOT
BRANCH   1   7
ATOM      7  C   UNL     1      -7.564  11.858   2.164  1.00  0.00     0.018 A 
ATOM      8  C   UNL     1      -8.083  10.564   2.217  1.00  0.00     0.133 A 
ATOM      9  C   UNL     1      -7.716   9.626   1.252  1.00  0.00     0.079 A 
ATOM     10  C   UNL     1      -6.680  12.214   1.146  1.00  0.00     0.015 A 
ATOM     11  C   UNL     1      -6.831   9.982   0.234  1.00  0.00     0.126 A 
ATOM     12  C   UNL     1      -6.314  11.276   0.181  1.00  0.00     0.040 A 
ATOM     13  F   UNL     1      -8.931  10.205   3.191  1.00  0.00    -0.206 F 
ATOM     14  F   UNL     1      -6.479   9.082  -0.693  1.00  0.00    -0.207 F 
ENDBRANCH   1   7
BRANCH   4  15
ATOM     15  C   UNL     1     -10.750  15.213   3.840  1.00  0.00     0.339 C 
ATOM     16  O   UNL     1     -11.074  16.218   4.476  1.00  0.00    -0.246 OA
BRANCH  15  17
ATOM     17  O   UNL     1     -11.556  14.661   2.892  1.00  0.00    -0.478 OA
ATOM     18  H   UNL     1     -11.355  15.006   1.997  1.00  0.00     0.297 HD
ENDBRANCH  15  17
ENDBRANCH   4  15
BRANCH   5  19
ATOM     19  O   UNL     1      -9.003  15.632   6.043  1.00  0.00    -0.507 OA
ATOM     20  H   UNL     1      -8.510  15.437   6.859  1.00  0.00     0.293 HD
ENDBRANCH   5  19
TORSDOF 4
ENDMDL
