MODEL 1
REMARK VINA RESULT:    -6.852      0.000      0.000
REMARK INTER + INTRA:          -8.642
REMARK INTER:                  -8.053
REMARK INTRA:                  -0.589
REMARK UNBOUND:                -0.589
REMARK SMILES O=C(O)c1cc(-c2ccc(F)cc2F)ccc1O
REMARK SMILES IDX 6 1 5 2 15 3 4 4 17 5 16 6 7 7 13 8 12 9 8 10 10 11 9 12
REMARK SMILES IDX 14 13 11 14 2 15 1 16 3 17 18 19
REMARK H PARENT 3 18 18 20
ROOT
ATOM      1  C   UNL     1       5.999  -1.480   3.329  1.00  0.00    -0.014 A 
ATOM      2  C   UNL     1       5.177  -0.512   3.904  1.00  0.00     0.028 A 
ATOM      3  C   UNL     1       5.618  -2.101   2.139  1.00  0.00     0.013 A 
ATOM      4  C   UNL     1       3.973  -0.164   3.291  1.00  0.00     0.102 A 
ATOM      5  C   UNL     1       3.592  -0.785   2.101  1.00  0.00     0.130 A 
ATOM      6  C   UNL     1       4.415  -1.754   1.525  1.00  0.00     0.048 A 
ENDROOT
BRANCH   1   7
ATOM      7  C   UNL     1       7.247  -1.842   3.966  1.00  0.00     0.018 A 
ATOM      8  C   UNL     1       7.592  -3.185   4.118  1.00  0.00     0.133 A 
ATOM      9  C   UNL     1       8.796  -3.530   4.733  1.00  0.00     0.079 A 
ATOM     10  C   UNL     1       8.107  -0.844   4.425  1.00  0.00     0.015 A 
ATOM     11  C   UNL     1       9.655  -2.532   5.194  1.00  0.00     0.126 A 
ATOM     12  C   UNL     1       9.310  -1.190   5.039  1.00  0.00     0.040 A 
ATOM     13  F   UNL     1       6.776  -4.156   3.684  1.00  0.00    -0.206 F 
ATOM     14  F   UNL     1      10.811  -2.862   5.783  1.00  0.00    -0.207 F 
ENDBRANCH   1   7
BRANCH   4  15
ATOM     15  C   UNL     1       3.129   0.849   3.908  1.00  0.00     0.339 C 
ATOM     16  O   UNL     1       1.930   0.718   4.168  1.00  0.00    -0.246 OA
BRANCH  15  17
ATOM     17  O   UNL     1       3.810   1.995   4.181  1.00  0.00    -0.478 OA
ATOM     18  H   UNL     1       4.636   1.818   4.679  1.00  0.00     0.297 HD
ENDBRANCH  15  17
ENDBRANCH   4  15
BRANCH   5  19
ATOM     19  O   UNL     1       2.420  -0.460   1.486  1.00  0.00    -0.507 OA
ATOM     20  H   UNL     1       2.415  -0.842   0.591  1.00  0.00     0.293 HD
ENDBRANCH   5  19
TORSDOF 4
ENDMDL
MODEL 2
REMARK VINA RESULT:    -6.839      1.279      2.740
REMARK INTER + INTRA:          -8.627
REMARK INTER:                  -7.970
REMARK INTRA:                  -0.657
REMARK UNBOUND:                -0.589
REMARK SMILES O=C(O)c1cc(-c2ccc(F)cc2F)ccc1O
REMARK SMILES IDX 6 1 5 2 15 3 4 4 17 5 16 6 7 7 13 8 12 9 8 10 10 11 9 12
REMARK SMILES IDX 14 13 11 14 2 15 1 16 3 17 18 19
REMARK H PARENT 3 18 18 20
ROOT
ATOM      1  C   UNL     1       6.008  -1.559   3.379  1.00  0.00    -0.014 A 
ATOM      2  C   UNL     1       5.706  -2.186   2.171  1.00  0.00     0.028 A 
ATOM      3  C   UNL     1       5.120  -0.634   3.927  1.00  0.00     0.013 A 
ATOM      4  C   UNL     1       4.515  -1.887   1.509  1.00  0.00     0.102 A 
ATOM      5  C   UNL     1       3.626  -0.962   2.057  1.00  0.00     0.130 A 
ATOM      6  C   UNL     1       3.929  -0.335   3.266  1.00  0.00     0.048 A 
ENDROOT
BRANCH   1   7
ATOM      7  C   UNL     1       7.245  -1.868   4.066  1.00  0.00     0.018 A 
ATOM      8  C   UNL     1       7.637  -3.196   4.239  1.00  0.00     0.133 A 
ATOM      9  C   UNL     1       8.830  -3.488   4.902  1.00  0.00     0.079 A 
ATOM     10  C   UNL     1       8.044  -0.834   4.553  1.00  0.00     0.015 A 
ATOM     11  C   UNL     1       9.629  -2.455   5.390  1.00  0.00     0.126 A 
ATOM     12  C   UNL     1       9.236  -1.128   5.215  1.00  0.00     0.040 A 
ATOM     13  F   UNL     1       6.879  -4.201   3.779  1.00  0.00    -0.206 F 
ATOM     14  F   UNL     1      10.773  -2.735   6.026  1.00  0.00    -0.207 F 
ENDBRANCH   1   7
BRANCH   4  15
ATOM     15  C   UNL     1       4.217  -2.552   0.248  1.00  0.00     0.339 C 
ATOM     16  O   UNL     1       3.762  -2.003  -0.758  1.00  0.00    -0.246 OA
BRANCH  15  17
ATOM     17  O   UNL     1       4.500  -3.883   0.285  1.00  0.00    -0.478 OA
ATOM     18  H   UNL     1       5.465  -4.050   0.309  1.00  0.00     0.297 HD
ENDBRANCH  15  17
ENDBRANCH   4  15
BRANCH   5  19
ATOM     19  O   UNL     1       2.457  -0.656   1.426  1.00  0.00    -0.507 OA
ATOM     20  H   UNL     1       1.800  -1.346   1.624  1.00  0.00     0.293 HD
ENDBRANCH   5  19
TORSDOF 4
ENDMDL
MODEL 3
REMARK VINA RESULT:    -6.750      1.719      3.162
REMARK INTER + INTRA:          -8.523
REMARK INTER:                  -7.712
REMARK INTRA:                  -0.811
REMARK UNBOUND:                -0.589
REMARK SMILES O=C(O)c1cc(-c2ccc(F)cc2F)ccc1O
REMARK SMILES IDX 6 1 5 2 15 3 4 4 17 5 16 6 7 7 13 8 12 9 8 10 10 11 9 12
REMARK SMILES IDX 14 13 11 14 2 15 1 16 3 17 18 19
REMARK H PARENT 3 18 18 20
ROOT
ATOM      1  C   UNL     1       5.996  -1.509   3.324  1.00  0.00    -0.014 A 
ATOM      2  C   UNL     1       5.778  -2.019   2.045  1.00  0.00     0.028 A 
ATOM      3  C   UNL     1       5.031  -0.704   3.929  1.00  0.00     0.013 A 
ATOM      4  C   UNL     1       4.593  -1.723   1.369  1.00  0.00     0.102 A 
ATOM      5  C   UNL     1       3.628  -0.918   1.973  1.00  0.00     0.130 A 
ATOM      6  C   UNL     1       3.847  -0.408   3.254  1.00  0.00     0.048 A 
ENDROOT
BRANCH   1   7
ATOM      7  C   UNL     1       7.225  -1.814   4.025  1.00  0.00     0.018 A 
ATOM      8  C   UNL     1       8.032  -0.782   4.506  1.00  0.00     0.133 A 
ATOM      9  C   UNL     1       9.216  -1.081   5.181  1.00  0.00     0.079 A 
ATOM     10  C   UNL     1       7.601  -3.143   4.221  1.00  0.00     0.015 A 
ATOM     11  C   UNL     1       9.592  -2.409   5.376  1.00  0.00     0.126 A 
ATOM     12  C   UNL     1       8.784  -3.440   4.896  1.00  0.00     0.040 A 
ATOM     13  F   UNL     1       7.686   0.500   4.324  1.00  0.00    -0.206 F 
ATOM     14  F   UNL     1      10.728  -2.696   6.023  1.00  0.00    -0.207 F 
ENDBRANCH   1   7
BRANCH   4  15
ATOM     15  C   UNL     1       4.384  -2.266   0.034  1.00  0.00     0.339 C 
ATOM     16  O   UNL     1       3.629  -1.791  -0.819  1.00  0.00    -0.246 OA
BRANCH  15  17
ATOM     17  O   UNL     1       5.125  -3.384  -0.194  1.00  0.00    -0.478 OA
ATOM     18  H   UNL     1       5.007  -4.051   0.515  1.00  0.00     0.297 HD
ENDBRANCH  15  17
ENDBRANCH   4  15
BRANCH   5  19
ATOM     19  O   UNL     1       2.464  -0.618   1.331  1.00  0.00    -0.507 OA
ATOM     20  H   UNL     1       2.182  -1.389   0.809  1.00  0.00     0.293 HD
ENDBRANCH   5  19
TORSDOF 4
ENDMDL
MODEL 4
REMARK VINA RESULT:    -5.141      4.221      6.480
REMARK INTER + INTRA:          -6.631
REMARK INTER:                  -5.550
REMARK INTRA:                  -1.081
REMARK UNBOUND:                -0.589
REMARK SMILES O=C(O)c1cc(-c2ccc(F)cc2F)ccc1O
REMARK SMILES IDX 6 1 5 2 15 3 4 4 17 5 16 6 7 7 13 8 12 9 8 10 10 11 9 12
REMARK SMILES IDX 14 13 11 14 2 15 1 16 3 17 18 19
REMARK H PARENT 3 18 18 20
ROOT
ATOM      1  C   UNL     1       8.174  -1.929   4.555  1.00  0.00    -0.014 A 
ATOM      2  C   UNL     1       8.320  -2.010   5.939  1.00  0.00     0.028 A 
ATOM      3  C   UNL     1       9.245  -2.247   3.720  1.00  0.00     0.013 A 
ATOM      4  C   UNL     1       9.538  -2.409   6.490  1.00  0.00     0.102 A 
ATOM      5  C   UNL     1      10.610  -2.727   5.656  1.00  0.00     0.130 A 
ATOM      6  C   UNL     1      10.463  -2.646   4.270  1.00  0.00     0.048 A 
ENDROOT
BRANCH   1   7
ATOM      7  C   UNL     1       6.911  -1.513   3.983  1.00  0.00     0.018 A 
ATOM      8  C   UNL     1       6.634  -0.157   3.807  1.00  0.00     0.133 A 
ATOM      9  C   UNL     1       5.415   0.239   3.256  1.00  0.00     0.079 A 
ATOM     10  C   UNL     1       5.971  -2.472   3.606  1.00  0.00     0.015 A 
ATOM     11  C   UNL     1       4.475  -0.720   2.879  1.00  0.00     0.126 A 
ATOM     12  C   UNL     1       4.754  -2.075   3.054  1.00  0.00     0.040 A 
ATOM     13  F   UNL     1       7.526   0.777   4.167  1.00  0.00    -0.206 F 
ATOM     14  F   UNL     1       3.305  -0.340   2.350  1.00  0.00    -0.207 F 
ENDBRANCH   1   7
BRANCH   4  15
ATOM     15  C   UNL     1       9.671  -2.487   7.938  1.00  0.00     0.339 C 
ATOM     16  O   UNL     1      10.661  -2.906   8.543  1.00  0.00    -0.246 OA
BRANCH  15  17
ATOM     17  O   UNL     1       8.561  -2.038   8.585  1.00  0.00    -0.478 OA
ATOM     18  H   UNL     1       7.964  -1.544   7.985  1.00  0.00     0.297 HD
ENDBRANCH  15  17
ENDBRANCH   4  15
BRANCH   5  19
ATOM     19  O   UNL     1      11.808  -3.120   6.174  1.00  0.00    -0.507 OA
ATOM     20  H   UNL     1      12.252  -3.706   5.536  1.00  0.00     0.293 HD
ENDBRANCH   5  19
TORSDOF 4
ENDMDL
MODEL 5
REMARK VINA RESULT:    -5.127      4.504      6.844
REMARK INTER + INTRA:          -6.615
REMARK INTER:                  -5.547
REMARK INTRA:                  -1.069
REMARK UNBOUND:                -0.589
REMARK SMILES O=C(O)c1cc(-c2ccc(F)cc2F)ccc1O
REMARK SMILES IDX 6 1 5 2 15 3 4 4 17 5 16 6 7 7 13 8 12 9 8 10 10 11 9 12
REMARK SMILES IDX 14 13 11 14 2 15 1 16 3 17 18 19
REMARK H PARENT 3 18 18 20
ROOT
ATOM      1  C   UNL     1       8.202  -1.951   4.550  1.00  0.00    -0.014 A 
ATOM      2  C   UNL     1       9.262  -2.331   3.728  1.00  0.00     0.028 A 
ATOM      3  C   UNL     1       8.357  -1.961   5.936  1.00  0.00     0.013 A 
ATOM      4  C   UNL     1      10.477  -2.723   4.291  1.00  0.00     0.102 A 
ATOM      5  C   UNL     1      10.631  -2.734   5.677  1.00  0.00     0.130 A 
ATOM      6  C   UNL     1       9.570  -2.353   6.500  1.00  0.00     0.048 A 
ENDROOT
BRANCH   1   7
ATOM      7  C   UNL     1       6.942  -1.545   3.967  1.00  0.00     0.018 A 
ATOM      8  C   UNL     1       6.659  -0.191   3.780  1.00  0.00     0.133 A 
ATOM      9  C   UNL     1       5.442   0.195   3.218  1.00  0.00     0.079 A 
ATOM     10  C   UNL     1       6.009  -2.511   3.589  1.00  0.00     0.015 A 
ATOM     11  C   UNL     1       4.510  -0.770   2.841  1.00  0.00     0.126 A 
ATOM     12  C   UNL     1       4.793  -2.124   3.027  1.00  0.00     0.040 A 
ATOM     13  F   UNL     1       7.544   0.750   4.140  1.00  0.00    -0.206 F 
ATOM     14  F   UNL     1       3.342  -0.400   2.301  1.00  0.00    -0.207 F 
ENDBRANCH   1   7
BRANCH   4  15
ATOM     15  C   UNL     1      11.571  -3.117   3.415  1.00  0.00     0.339 C 
ATOM     16  O   UNL     1      12.587  -3.721   3.768  1.00  0.00    -0.246 OA
BRANCH  15  17
ATOM     17  O   UNL     1      11.361  -2.745   2.123  1.00  0.00    -0.478 OA
ATOM     18  H   UNL     1      11.490  -1.781   1.995  1.00  0.00     0.297 HD
ENDBRANCH  15  17
ENDBRANCH   4  15
BRANCH   5  19
ATOM     19  O   UNL     1      11.810  -3.113   6.247  1.00  0.00    -0.507 OA
ATOM     20  H   UNL     1      11.660  -3.303   7.190  1.00  0.00     0.293 HD
ENDBRANCH   5  19
TORSDOF 4
ENDMDL
MODEL 6
REMARK VINA RESULT:    -4.850      3.966      6.191
REMARK INTER + INTRA:          -6.290
REMARK INTER:                  -5.514
REMARK INTRA:                  -0.776
REMARK UNBOUND:                -0.589
REMARK SMILES O=C(O)c1cc(-c2ccc(F)cc2F)ccc1O
REMARK SMILES IDX 6 1 5 2 15 3 4 4 17 5 16 6 7 7 13 8 12 9 8 10 10 11 9 12
REMARK SMILES IDX 14 13 11 14 2 15 1 16 3 17 18 19
REMARK H PARENT 3 18 18 20
ROOT
ATOM      1  C   UNL     1       8.256  -2.297   4.401  1.00  0.00    -0.014 A 
ATOM      2  C   UNL     1       8.198  -2.216   5.792  1.00  0.00     0.028 A 
ATOM      3  C   UNL     1       9.460  -2.610   3.771  1.00  0.00     0.013 A 
ATOM      4  C   UNL     1       9.344  -2.446   6.553  1.00  0.00     0.102 A 
ATOM      5  C   UNL     1      10.548  -2.759   5.923  1.00  0.00     0.130 A 
ATOM      6  C   UNL     1      10.606  -2.841   4.531  1.00  0.00     0.048 A 
ENDROOT
BRANCH   1   7
ATOM      7  C   UNL     1       7.068  -2.057   3.611  1.00  0.00     0.018 A 
ATOM      8  C   UNL     1       6.224  -3.116   3.274  1.00  0.00     0.133 A 
ATOM      9  C   UNL     1       5.080  -2.880   2.512  1.00  0.00     0.079 A 
ATOM     10  C   UNL     1       6.767  -0.763   3.187  1.00  0.00     0.015 A 
ATOM     11  C   UNL     1       4.779  -1.586   2.087  1.00  0.00     0.126 A 
ATOM     12  C   UNL     1       5.623  -0.528   2.425  1.00  0.00     0.040 A 
ATOM     13  F   UNL     1       6.501  -4.366   3.672  1.00  0.00    -0.206 F 
ATOM     14  F   UNL     1       3.681  -1.359   1.355  1.00  0.00    -0.207 F 
ENDBRANCH   1   7
BRANCH   4  15
ATOM     15  C   UNL     1       9.262  -2.357   8.005  1.00  0.00     0.339 C 
ATOM     16  O   UNL     1       8.245  -2.081   8.646  1.00  0.00    -0.246 OA
BRANCH  15  17
ATOM     17  O   UNL     1      10.454  -2.617   8.608  1.00  0.00    -0.478 OA
ATOM     18  H   UNL     1      10.485  -2.262   9.521  1.00  0.00     0.297 HD
ENDBRANCH  15  17
ENDBRANCH   4  15
BRANCH   5  19
ATOM     19  O   UNL     1      11.679  -2.988   6.648  1.00  0.00    -0.507 OA
ATOM     20  H   UNL     1      11.555  -3.791   7.185  1.00  0.00     0.293 HD
ENDBRANCH   5  19
TORSDOF 4
ENDMDL
