MODEL 1
REMARK VINA RESULT:    -5.242      0.000      0.000
REMARK INTER + INTRA:          -7.239
REMARK INTER:                  -6.468
REMARK INTRA:                  -0.772
REMARK UNBOUND:                -0.772
REMARK SMILES Cc1ccc(C(=O)c2cc(O)c(O)c([N+](=O)[O-])c2)cc1
REMARK SMILES IDX 8 1 18 2 9 3 14 4 10 5 12 6 6 7 7 8 5 9 4 10 19 11 3 12
REMARK SMILES IDX 20 13 2 14 1 15 15 16 17 17 16 18 11 19 13 21
REMARK H PARENT 11 20 13 22
ROOT
ATOM      1  C   UNL     1       5.437  -1.495   4.070  1.00  0.00     0.033 A 
ATOM      2  C   UNL     1       5.444  -2.109   2.840  1.00  0.00     0.102 A 
ATOM      3  C   UNL     1       4.486  -0.574   4.440  1.00  0.00     0.063 A 
ATOM      4  C   UNL     1       4.441  -1.784   1.927  1.00  0.00     0.315 A 
ATOM      5  C   UNL     1       3.483  -0.248   3.526  1.00  0.00     0.165 A 
ATOM      6  C   UNL     1       3.460  -0.854   2.269  1.00  0.00     0.237 A 
ENDROOT
BRANCH   1   7
ATOM      7  C   UNL     1       6.512  -1.843   5.049  1.00  0.00     0.193 C 
ATOM      8  O   UNL     1       6.210  -1.838   6.252  1.00  0.00    -0.289 OA
BRANCH   7   9
ATOM      9  C   UNL     1       7.865  -2.178   4.634  1.00  0.00     0.023 A 
ATOM     10  C   UNL     1       8.852  -1.192   4.611  1.00  0.00     0.012 A 
ATOM     11  C   UNL     1       8.176  -3.485   4.261  1.00  0.00     0.012 A 
ATOM     12  C   UNL     1      10.149  -1.514   4.214  1.00  0.00     0.004 A 
ATOM     13  C   UNL     1       9.475  -3.807   3.863  1.00  0.00     0.004 A 
ATOM     14  C   UNL     1      10.461  -2.822   3.840  1.00  0.00    -0.051 A 
ATOM     15  C   UNL     1      11.848  -3.165   3.414  1.00  0.00     0.044 C 
ENDBRANCH   7   9
ENDBRANCH   1   7
BRANCH   4  16
ATOM     16  N   UNL     1       4.435  -2.412   0.650  1.00  0.00     0.066 N 
ATOM     17  O   UNL     1       3.969  -1.784  -0.331  1.00  0.00    -0.258 OA
ATOM     18  O   UNL     1       4.896  -3.572   0.543  1.00  0.00    -0.258 OA
ENDBRANCH   4  16
BRANCH   5  19
ATOM     19  O   UNL     1       2.531   0.662   3.875  1.00  0.00    -0.504 OA
ATOM     20  H   UNL     1       1.678   0.212   3.992  1.00  0.00     0.293 HD
ENDBRANCH   5  19
BRANCH   6  21
ATOM     21  O   UNL     1       2.474  -0.528   1.385  1.00  0.00    -0.500 OA
ATOM     22  H   UNL     1       2.249   0.411   1.479  1.00  0.00     0.294 HD
ENDBRANCH   6  21
TORSDOF 5
ENDMDL
MODEL 2
REMARK VINA RESULT:    -5.215      2.047      3.562
REMARK INTER + INTRA:          -7.206
REMARK INTER:                  -6.418
REMARK INTRA:                  -0.788
REMARK UNBOUND:                -0.772
REMARK SMILES Cc1ccc(C(=O)c2cc(O)c(O)c([N+](=O)[O-])c2)cc1
REMARK SMILES IDX 8 1 18 2 9 3 14 4 10 5 12 6 6 7 7 8 5 9 4 10 19 11 3 12
REMARK SMILES IDX 20 13 2 14 1 15 15 16 17 17 16 18 11 19 13 21
REMARK H PARENT 11 20 13 22
ROOT
ATOM      1  C   UNL     1       6.329  -1.359   2.505  1.00  0.00     0.033 A 
ATOM      2  C   UNL     1       5.643  -0.497   3.329  1.00  0.00     0.102 A 
ATOM      3  C   UNL     1       5.766  -1.929   1.388  1.00  0.00     0.063 A 
ATOM      4  C   UNL     1       4.320  -0.187   3.017  1.00  0.00     0.315 A 
ATOM      5  C   UNL     1       4.442  -1.620   1.076  1.00  0.00     0.165 A 
ATOM      6  C   UNL     1       3.719  -0.748   1.891  1.00  0.00     0.237 A 
ENDROOT
BRANCH   1   7
ATOM      7  C   UNL     1       7.747  -1.691   2.839  1.00  0.00     0.193 C 
ATOM      8  O   UNL     1       8.540  -1.813   1.893  1.00  0.00    -0.289 OA
BRANCH   7   9
ATOM      9  C   UNL     1       8.204  -1.869   4.208  1.00  0.00     0.023 A 
ATOM     10  C   UNL     1       8.235  -3.144   4.773  1.00  0.00     0.012 A 
ATOM     11  C   UNL     1       8.613  -0.764   4.955  1.00  0.00     0.012 A 
ATOM     12  C   UNL     1       8.674  -3.314   6.086  1.00  0.00     0.004 A 
ATOM     13  C   UNL     1       9.053  -0.934   6.269  1.00  0.00     0.004 A 
ATOM     14  C   UNL     1       9.083  -2.209   6.834  1.00  0.00    -0.051 A 
ATOM     15  C   UNL     1       9.551  -2.391   8.238  1.00  0.00     0.044 C 
ENDBRANCH   7   9
ENDBRANCH   1   7
BRANCH   4  16
ATOM     16  N   UNL     1       3.598   0.703   3.859  1.00  0.00     0.066 N 
ATOM     17  O   UNL     1       4.189   1.706   4.328  1.00  0.00    -0.258 OA
ATOM     18  O   UNL     1       2.395   0.459   4.108  1.00  0.00    -0.258 OA
ENDBRANCH   4  16
BRANCH   5  19
ATOM     19  O   UNL     1       3.868  -2.176  -0.028  1.00  0.00    -0.504 OA
ATOM     20  H   UNL     1       4.394  -1.955  -0.814  1.00  0.00     0.293 HD
ENDBRANCH   5  19
BRANCH   6  21
ATOM     21  O   UNL     1       2.424  -0.453   1.575  1.00  0.00    -0.500 OA
ATOM     22  H   UNL     1       1.967  -0.112   2.359  1.00  0.00     0.294 HD
ENDBRANCH   6  21
TORSDOF 5
ENDMDL
MODEL 3
REMARK VINA RESULT:    -4.124      1.249      2.931
REMARK INTER + INTRA:          -5.860
REMARK INTER:                  -5.140
REMARK INTRA:                  -0.720
REMARK UNBOUND:                -0.772
REMARK SMILES Cc1ccc(C(=O)c2cc(O)c(O)c([N+](=O)[O-])c2)cc1
REMARK SMILES IDX 8 1 18 2 9 3 14 4 10 5 12 6 6 7 7 8 5 9 4 10 19 11 3 12
REMARK SMILES IDX 20 13 2 14 1 15 15 16 17 17 16 18 11 19 13 21
REMARK H PARENT 11 20 13 22
ROOT
ATOM      1  C   UNL     1       5.813  -1.620   4.157  1.00  0.00     0.033 A 
ATOM      2  C   UNL     1       5.004  -0.561   4.498  1.00  0.00     0.102 A 
ATOM      3  C   UNL     1       5.646  -2.344   3.000  1.00  0.00     0.063 A 
ATOM      4  C   UNL     1       3.970  -0.206   3.632  1.00  0.00     0.315 A 
ATOM      5  C   UNL     1       4.612  -1.989   2.134  1.00  0.00     0.165 A 
ATOM      6  C   UNL     1       3.773  -0.919   2.450  1.00  0.00     0.237 A 
ENDROOT
BRANCH   1   7
ATOM      7  C   UNL     1       6.920  -2.001   5.084  1.00  0.00     0.193 C 
ATOM      8  O   UNL     1       6.653  -2.064   6.294  1.00  0.00    -0.289 OA
BRANCH   7   9
ATOM      9  C   UNL     1       8.265  -2.292   4.615  1.00  0.00     0.023 A 
ATOM     10  C   UNL     1       8.599  -3.585   4.211  1.00  0.00     0.012 A 
ATOM     11  C   UNL     1       9.222  -1.278   4.568  1.00  0.00     0.012 A 
ATOM     12  C   UNL     1       9.889  -3.864   3.761  1.00  0.00     0.004 A 
ATOM     13  C   UNL     1      10.513  -1.556   4.117  1.00  0.00     0.004 A 
ATOM     14  C   UNL     1      10.847  -2.849   3.713  1.00  0.00    -0.051 A 
ATOM     15  C   UNL     1      12.226  -3.148   3.233  1.00  0.00     0.044 C 
ENDBRANCH   7   9
ENDBRANCH   1   7
BRANCH   4  16
ATOM     16  N   UNL     1       3.126   0.887   3.970  1.00  0.00     0.066 N 
ATOM     17  O   UNL     1       1.897   0.681   4.119  1.00  0.00    -0.258 OA
ATOM     18  O   UNL     1       3.634   2.024   4.112  1.00  0.00    -0.258 OA
ENDBRANCH   4  16
BRANCH   5  19
ATOM     19  O   UNL     1       4.432  -2.695   0.982  1.00  0.00    -0.504 OA
ATOM     20  H   UNL     1       5.295  -2.976   0.635  1.00  0.00     0.293 HD
ENDBRANCH   5  19
BRANCH   6  21
ATOM     21  O   UNL     1       2.766  -0.581   1.594  1.00  0.00    -0.500 OA
ATOM     22  H   UNL     1       2.117  -1.301   1.553  1.00  0.00     0.294 HD
ENDBRANCH   6  21
TORSDOF 5
ENDMDL
MODEL 4
REMARK VINA RESULT:    -4.101      1.889      2.515
REMARK INTER + INTRA:          -5.831
REMARK INTER:                  -5.100
REMARK INTRA:                  -0.731
REMARK UNBOUND:                -0.772
REMARK SMILES Cc1ccc(C(=O)c2cc(O)c(O)c([N+](=O)[O-])c2)cc1
REMARK SMILES IDX 8 1 18 2 9 3 14 4 10 5 12 6 6 7 7 8 5 9 4 10 19 11 3 12
REMARK SMILES IDX 20 13 2 14 1 15 15 16 17 17 16 18 11 19 13 21
REMARK H PARENT 11 20 13 22
ROOT
ATOM      1  C   UNL     1       6.572  -1.424   2.775  1.00  0.00     0.033 A 
ATOM      2  C   UNL     1       6.010  -2.105   1.720  1.00  0.00     0.102 A 
ATOM      3  C   UNL     1       5.896  -0.466   3.491  1.00  0.00     0.063 A 
ATOM      4  C   UNL     1       4.694  -1.811   1.363  1.00  0.00     0.315 A 
ATOM      5  C   UNL     1       4.580  -0.171   3.133  1.00  0.00     0.165 A 
ATOM      6  C   UNL     1       3.979  -0.844   2.068  1.00  0.00     0.237 A 
ENDROOT
BRANCH   1   7
ATOM      7  C   UNL     1       7.982  -1.739   3.158  1.00  0.00     0.193 C 
ATOM      8  O   UNL     1       8.813  -1.833   2.242  1.00  0.00    -0.289 OA
BRANCH   7   9
ATOM      9  C   UNL     1       8.389  -1.932   4.541  1.00  0.00     0.023 A 
ATOM     10  C   UNL     1       8.384  -3.211   5.098  1.00  0.00     0.012 A 
ATOM     11  C   UNL     1       8.786  -0.838   5.310  1.00  0.00     0.012 A 
ATOM     12  C   UNL     1       8.775  -3.395   6.424  1.00  0.00     0.004 A 
ATOM     13  C   UNL     1       9.178  -1.022   6.636  1.00  0.00     0.004 A 
ATOM     14  C   UNL     1       9.172  -2.301   7.194  1.00  0.00    -0.051 A 
ATOM     15  C   UNL     1       9.589  -2.499   8.611  1.00  0.00     0.044 C 
ENDBRANCH   7   9
ENDBRANCH   1   7
BRANCH   4  16
ATOM     16  N   UNL     1       4.099  -2.506   0.275  1.00  0.00     0.066 N 
ATOM     17  O   UNL     1       3.703  -1.852  -0.720  1.00  0.00    -0.258 OA
ATOM     18  O   UNL     1       3.987  -3.753   0.341  1.00  0.00    -0.258 OA
ENDBRANCH   4  16
BRANCH   5  19
ATOM     19  O   UNL     1       3.893   0.776   3.832  1.00  0.00    -0.504 OA
ATOM     20  H   UNL     1       3.548   0.388   4.653  1.00  0.00     0.293 HD
ENDBRANCH   5  19
BRANCH   6  21
ATOM     21  O   UNL     1       2.691  -0.547   1.728  1.00  0.00    -0.500 OA
ATOM     22  H   UNL     1       2.628  -0.419   0.769  1.00  0.00     0.294 HD
ENDBRANCH   6  21
TORSDOF 5
ENDMDL
MODEL 5
REMARK VINA RESULT:    -3.949      3.765      7.065
REMARK INTER + INTRA:          -5.644
REMARK INTER:                  -4.671
REMARK INTRA:                  -0.973
REMARK UNBOUND:                -0.772
REMARK SMILES Cc1ccc(C(=O)c2cc(O)c(O)c([N+](=O)[O-])c2)cc1
REMARK SMILES IDX 8 1 18 2 9 3 14 4 10 5 12 6 6 7 7 8 5 9 4 10 19 11 3 12
REMARK SMILES IDX 20 13 2 14 1 15 15 16 17 17 16 18 11 19 13 21
REMARK H PARENT 11 20 13 22
ROOT
ATOM      1  C   UNL     1       8.852  -1.620   4.890  1.00  0.00     0.033 A 
ATOM      2  C   UNL     1       8.964  -1.828   6.245  1.00  0.00     0.102 A 
ATOM      3  C   UNL     1       9.820  -2.005   3.993  1.00  0.00     0.063 A 
ATOM      4  C   UNL     1      10.109  -2.459   6.730  1.00  0.00     0.315 A 
ATOM      5  C   UNL     1      10.966  -2.635   4.478  1.00  0.00     0.165 A 
ATOM      6  C   UNL     1      11.111  -2.862   5.848  1.00  0.00     0.237 A 
ENDROOT
BRANCH   1   7
ATOM      7  C   UNL     1       7.625  -0.944   4.370  1.00  0.00     0.193 C 
ATOM      8  O   UNL     1       7.332   0.158   4.858  1.00  0.00    -0.289 OA
BRANCH   7   9
ATOM      9  C   UNL     1       6.790  -1.533   3.335  1.00  0.00     0.023 A 
ATOM     10  C   UNL     1       6.299  -2.829   3.488  1.00  0.00     0.012 A 
ATOM     11  C   UNL     1       6.481  -0.801   2.188  1.00  0.00     0.012 A 
ATOM     12  C   UNL     1       5.498  -3.393   2.495  1.00  0.00     0.004 A 
ATOM     13  C   UNL     1       5.680  -1.365   1.194  1.00  0.00     0.004 A 
ATOM     14  C   UNL     1       5.188  -2.661   1.348  1.00  0.00    -0.051 A 
ATOM     15  C   UNL     1       4.334  -3.265   0.286  1.00  0.00     0.044 C 
ENDBRANCH   7   9
ENDBRANCH   1   7
BRANCH   4  16
ATOM     16  N   UNL     1      10.239  -2.682   8.129  1.00  0.00     0.066 N 
ATOM     17  O   UNL     1      11.388  -2.722   8.632  1.00  0.00    -0.258 OA
ATOM     18  O   UNL     1       9.203  -2.830   8.817  1.00  0.00    -0.258 OA
ENDBRANCH   4  16
BRANCH   5  19
ATOM     19  O   UNL     1      11.936  -3.024   3.604  1.00  0.00    -0.504 OA
ATOM     20  H   UNL     1      12.627  -2.342   3.560  1.00  0.00     0.293 HD
ENDBRANCH   5  19
BRANCH   6  21
ATOM     21  O   UNL     1      12.236  -3.480   6.310  1.00  0.00    -0.500 OA
ATOM     22  H   UNL     1      12.398  -3.218   7.230  1.00  0.00     0.294 HD
ENDBRANCH   6  21
TORSDOF 5
ENDMDL
MODEL 6
REMARK VINA RESULT:    -3.925      3.498      7.138
REMARK INTER + INTRA:          -5.615
REMARK INTER:                  -4.637
REMARK INTRA:                  -0.978
REMARK UNBOUND:                -0.772
REMARK SMILES Cc1ccc(C(=O)c2cc(O)c(O)c([N+](=O)[O-])c2)cc1
REMARK SMILES IDX 8 1 18 2 9 3 14 4 10 5 12 6 6 7 7 8 5 9 4 10 19 11 3 12
REMARK SMILES IDX 20 13 2 14 1 15 15 16 17 17 16 18 11 19 13 21
REMARK H PARENT 11 20 13 22
ROOT
ATOM      1  C   UNL     1       8.567  -2.912   4.535  1.00  0.00     0.033 A 
ATOM      2  C   UNL     1       8.599  -2.698   5.893  1.00  0.00     0.102 A 
ATOM      3  C   UNL     1       9.697  -3.142   3.788  1.00  0.00     0.063 A 
ATOM      4  C   UNL     1       9.834  -2.716   6.542  1.00  0.00     0.315 A 
ATOM      5  C   UNL     1      10.933  -3.159   4.436  1.00  0.00     0.165 A 
ATOM      6  C   UNL     1      11.001  -2.946   5.814  1.00  0.00     0.237 A 
ENDROOT
BRANCH   1   7
ATOM      7  C   UNL     1       7.244  -2.893   3.840  1.00  0.00     0.193 C 
ATOM      8  O   UNL     1       6.956  -3.874   3.138  1.00  0.00    -0.289 OA
BRANCH   7   9
ATOM      9  C   UNL     1       6.313  -1.783   3.966  1.00  0.00     0.023 A 
ATOM     10  C   UNL     1       6.743  -0.480   3.710  1.00  0.00     0.012 A 
ATOM     11  C   UNL     1       4.991  -2.020   4.341  1.00  0.00     0.012 A 
ATOM     12  C   UNL     1       5.850   0.584   3.830  1.00  0.00     0.004 A 
ATOM     13  C   UNL     1       4.097  -0.955   4.461  1.00  0.00     0.004 A 
ATOM     14  C   UNL     1       4.527   0.347   4.206  1.00  0.00    -0.051 A 
ATOM     15  C   UNL     1       3.573   1.486   4.335  1.00  0.00     0.044 C 
ENDBRANCH   7   9
ENDBRANCH   1   7
BRANCH   4  16
ATOM     16  N   UNL     1       9.884  -2.496   7.946  1.00  0.00     0.066 N 
ATOM     17  O   UNL     1      10.794  -3.045   8.613  1.00  0.00    -0.258 OA
ATOM     18  O   UNL     1       9.018  -1.761   8.475  1.00  0.00    -0.258 OA
ENDBRANCH   4  16
BRANCH   5  19
ATOM     19  O   UNL     1      12.065  -3.386   3.712  1.00  0.00    -0.504 OA
ATOM     20  H   UNL     1      12.630  -4.021   4.182  1.00  0.00     0.293 HD
ENDBRANCH   5  19
BRANCH   6  21
ATOM     21  O   UNL     1      12.215  -2.966   6.437  1.00  0.00    -0.500 OA
ATOM     22  H   UNL     1      12.914  -2.763   5.795  1.00  0.00     0.294 HD
ENDBRANCH   6  21
TORSDOF 5
ENDMDL
MODEL 7
REMARK VINA RESULT:    -3.910      3.598      6.527
REMARK INTER + INTRA:          -5.596
REMARK INTER:                  -4.658
REMARK INTRA:                  -0.939
REMARK UNBOUND:                -0.772
REMARK SMILES Cc1ccc(C(=O)c2cc(O)c(O)c([N+](=O)[O-])c2)cc1
REMARK SMILES IDX 8 1 18 2 9 3 14 4 10 5 12 6 6 7 7 8 5 9 4 10 19 11 3 12
REMARK SMILES IDX 20 13 2 14 1 15 15 16 17 17 16 18 11 19 13 21
REMARK H PARENT 11 20 13 22
ROOT
ATOM      1  C   UNL     1       8.704  -1.491   4.974  1.00  0.00     0.033 A 
ATOM      2  C   UNL     1       9.682  -1.981   4.140  1.00  0.00     0.102 A 
ATOM      3  C   UNL     1       8.773  -1.591   6.343  1.00  0.00     0.063 A 
ATOM      4  C   UNL     1      10.793  -2.605   4.708  1.00  0.00     0.315 A 
ATOM      5  C   UNL     1       9.883  -2.215   6.912  1.00  0.00     0.165 A 
ATOM      6  C   UNL     1      10.894  -2.722   6.094  1.00  0.00     0.237 A 
ENDROOT
BRANCH   1   7
ATOM      7  C   UNL     1       7.515  -0.823   4.365  1.00  0.00     0.193 C 
ATOM      8  O   UNL     1       7.225   0.310   4.779  1.00  0.00    -0.289 OA
BRANCH   7   9
ATOM      9  C   UNL     1       6.712  -1.452   3.329  1.00  0.00     0.023 A 
ATOM     10  C   UNL     1       6.271  -2.766   3.489  1.00  0.00     0.012 A 
ATOM     11  C   UNL     1       6.383  -0.742   2.174  1.00  0.00     0.012 A 
ATOM     12  C   UNL     1       5.501  -3.369   2.495  1.00  0.00     0.004 A 
ATOM     13  C   UNL     1       5.613  -1.345   1.179  1.00  0.00     0.004 A 
ATOM     14  C   UNL     1       5.172  -2.659   1.339  1.00  0.00    -0.051 A 
ATOM     15  C   UNL     1       4.350  -3.305   0.276  1.00  0.00     0.044 C 
ENDBRANCH   7   9
ENDBRANCH   1   7
BRANCH   4  16
ATOM     16  N   UNL     1      11.812  -3.115   3.858  1.00  0.00     0.066 N 
ATOM     17  O   UNL     1      11.497  -3.536   2.719  1.00  0.00    -0.258 OA
ATOM     18  O   UNL     1      12.995  -3.129   4.272  1.00  0.00    -0.258 OA
ENDBRANCH   4  16
BRANCH   5  19
ATOM     19  O   UNL     1       9.968  -2.323   8.268  1.00  0.00    -0.504 OA
ATOM     20  H   UNL     1      10.291  -1.485   8.641  1.00  0.00     0.293 HD
ENDBRANCH   5  19
BRANCH   6  21
ATOM     21  O   UNL     1      11.975  -3.330   6.662  1.00  0.00    -0.500 OA
ATOM     22  H   UNL     1      11.713  -3.749   7.496  1.00  0.00     0.294 HD
ENDBRANCH   6  21
TORSDOF 5
ENDMDL
MODEL 8
REMARK VINA RESULT:    -3.910      3.705      6.862
REMARK INTER + INTRA:          -5.596
REMARK INTER:                  -4.621
REMARK INTRA:                  -0.975
REMARK UNBOUND:                -0.772
REMARK SMILES Cc1ccc(C(=O)c2cc(O)c(O)c([N+](=O)[O-])c2)cc1
REMARK SMILES IDX 8 1 18 2 9 3 14 4 10 5 12 6 6 7 7 8 5 9 4 10 19 11 3 12
REMARK SMILES IDX 20 13 2 14 1 15 15 16 17 17 16 18 11 19 13 21
REMARK H PARENT 11 20 13 22
ROOT
ATOM      1  C   UNL     1       8.624  -2.828   4.690  1.00  0.00     0.033 A 
ATOM      2  C   UNL     1       9.813  -2.971   4.012  1.00  0.00     0.102 A 
ATOM      3  C   UNL     1       8.555  -2.702   6.057  1.00  0.00     0.063 A 
ATOM      4  C   UNL     1      11.000  -2.987   4.744  1.00  0.00     0.315 A 
ATOM      5  C   UNL     1       9.742  -2.719   6.789  1.00  0.00     0.165 A 
ATOM      6  C   UNL     1      10.965  -2.861   6.133  1.00  0.00     0.237 A 
ENDROOT
BRANCH   1   7
ATOM      7  C   UNL     1       7.352  -2.810   3.906  1.00  0.00     0.193 C 
ATOM      8  O   UNL     1       7.138  -3.768   3.148  1.00  0.00    -0.289 OA
BRANCH   7   9
ATOM      9  C   UNL     1       6.388  -1.727   4.009  1.00  0.00     0.023 A 
ATOM     10  C   UNL     1       5.053  -2.006   4.300  1.00  0.00     0.012 A 
ATOM     11  C   UNL     1       6.798  -0.408   3.816  1.00  0.00     0.012 A 
ATOM     12  C   UNL     1       4.129  -0.967   4.399  1.00  0.00     0.004 A 
ATOM     13  C   UNL     1       5.874   0.633   3.915  1.00  0.00     0.004 A 
ATOM     14  C   UNL     1       4.538   0.353   4.206  1.00  0.00    -0.051 A 
ATOM     15  C   UNL     1       3.549   1.464   4.310  1.00  0.00     0.044 C 
ENDBRANCH   7   9
ENDBRANCH   1   7
BRANCH   4  16
ATOM     16  N   UNL     1      12.237  -3.134   4.058  1.00  0.00     0.066 N 
ATOM     17  O   UNL     1      12.327  -2.721   2.876  1.00  0.00    -0.258 OA
ATOM     18  O   UNL     1      13.200  -3.671   4.652  1.00  0.00    -0.258 OA
ENDBRANCH   4  16
BRANCH   5  19
ATOM     19  O   UNL     1       9.693  -2.594   8.145  1.00  0.00    -0.504 OA
ATOM     20  H   UNL     1      10.336  -3.199   8.551  1.00  0.00     0.293 HD
ENDBRANCH   5  19
BRANCH   6  21
ATOM     21  O   UNL     1      12.120  -2.876   6.860  1.00  0.00    -0.500 OA
ATOM     22  H   UNL     1      11.932  -2.618   7.776  1.00  0.00     0.294 HD
ENDBRANCH   6  21
TORSDOF 5
ENDMDL
MODEL 9
REMARK VINA RESULT:    -3.643      3.233      4.447
REMARK INTER + INTRA:          -5.267
REMARK INTER:                  -4.449
REMARK INTRA:                  -0.818
REMARK UNBOUND:                -0.772
REMARK SMILES Cc1ccc(C(=O)c2cc(O)c(O)c([N+](=O)[O-])c2)cc1
REMARK SMILES IDX 8 1 18 2 9 3 14 4 10 5 12 6 6 7 7 8 5 9 4 10 19 11 3 12
REMARK SMILES IDX 20 13 2 14 1 15 15 16 17 17 16 18 11 19 13 21
REMARK H PARENT 11 20 13 22
ROOT
ATOM      1  C   UNL     1       8.033  -2.576   4.605  1.00  0.00     0.033 A 
ATOM      2  C   UNL     1       7.090  -1.717   4.090  1.00  0.00     0.102 A 
ATOM      3  C   UNL     1       7.986  -3.937   4.416  1.00  0.00     0.063 A 
ATOM      4  C   UNL     1       6.040  -2.251   3.342  1.00  0.00     0.315 A 
ATOM      5  C   UNL     1       6.936  -4.470   3.668  1.00  0.00     0.165 A 
ATOM      6  C   UNL     1       5.963  -3.627   3.131  1.00  0.00     0.237 A 
ENDROOT
BRANCH   1   7
ATOM      7  C   UNL     1       9.157  -2.005   5.407  1.00  0.00     0.193 C 
ATOM      8  O   UNL     1       9.891  -1.176   4.848  1.00  0.00    -0.289 OA
BRANCH   7   9
ATOM      9  C   UNL     1       9.403  -2.388   6.788  1.00  0.00     0.023 A 
ATOM     10  C   UNL     1       8.333  -2.713   7.622  1.00  0.00     0.012 A 
ATOM     11  C   UNL     1      10.707  -2.430   7.278  1.00  0.00     0.012 A 
ATOM     12  C   UNL     1       8.569  -3.080   8.947  1.00  0.00     0.004 A 
ATOM     13  C   UNL     1      10.944  -2.797   8.604  1.00  0.00     0.004 A 
ATOM     14  C   UNL     1       9.875  -3.123   9.438  1.00  0.00    -0.051 A 
ATOM     15  C   UNL     1      10.126  -3.514  10.855  1.00  0.00     0.044 C 
ENDBRANCH   7   9
ENDBRANCH   1   7
BRANCH   4  16
ATOM     16  N   UNL     1       5.058  -1.375   2.802  1.00  0.00     0.066 N 
ATOM     17  O   UNL     1       5.433  -0.331   2.217  1.00  0.00    -0.258 OA
ATOM     18  O   UNL     1       3.847  -1.673   2.926  1.00  0.00    -0.258 OA
ENDBRANCH   4  16
BRANCH   5  19
ATOM     19  O   UNL     1       6.873  -5.817   3.470  1.00  0.00    -0.504 OA
ATOM     20  H   UNL     1       5.996  -6.055   3.125  1.00  0.00     0.293 HD
ENDBRANCH   5  19
BRANCH   6  21
ATOM     21  O   UNL     1       4.941  -4.161   2.400  1.00  0.00    -0.500 OA
ATOM     22  H   UNL     1       5.280  -4.481   1.550  1.00  0.00     0.294 HD
ENDBRANCH   6  21
TORSDOF 5
ENDMDL
