MODEL 1
REMARK VINA RESULT:    -5.166      0.000      0.000
REMARK INTER + INTRA:          -7.095
REMARK INTER:                  -6.375
REMARK INTRA:                  -0.721
REMARK UNBOUND:                -0.721
REMARK SMILES Cc1ccc(C(=O)c2cc(O)c(O)c([N+](=O)[O-])c2)cc1
REMARK SMILES IDX 8 1 18 2 9 3 14 4 10 5 12 6 6 7 7 8 5 9 4 10 19 11 3 12
REMARK SMILES IDX 20 13 2 14 1 15 15 16 17 17 16 18 11 19 13 21
REMARK H PARENT 11 20 13 22
ROOT
ATOM      1  C   UNL     1       7.497  -2.399  -1.799  1.00  0.00     0.033 A 
ATOM      2  C   UNL     1       7.403  -1.200  -1.131  1.00  0.00     0.102 A 
ATOM      3  C   UNL     1       6.461  -3.300  -1.866  1.00  0.00     0.063 A 
ATOM      4  C   UNL     1       6.203  -0.883  -0.496  1.00  0.00     0.315 A 
ATOM      5  C   UNL     1       5.260  -2.983  -1.229  1.00  0.00     0.165 A 
ATOM      6  C   UNL     1       5.131  -1.774  -0.545  1.00  0.00     0.237 A 
ENDROOT
BRANCH   1   7
ATOM      7  C   UNL     1       8.783  -2.739  -2.479  1.00  0.00     0.193 C 
ATOM      8  O   UNL     1       8.712  -3.341  -3.561  1.00  0.00    -0.289 OA
BRANCH   7   9
ATOM      9  C   UNL     1      10.078  -2.390  -1.919  1.00  0.00     0.023 A 
ATOM     10  C   UNL     1      10.811  -3.341  -1.209  1.00  0.00     0.012 A 
ATOM     11  C   UNL     1      10.589  -1.103  -2.090  1.00  0.00     0.012 A 
ATOM     12  C   UNL     1      12.053  -3.006  -0.671  1.00  0.00     0.004 A 
ATOM     13  C   UNL     1      11.832  -0.767  -1.553  1.00  0.00     0.004 A 
ATOM     14  C   UNL     1      12.564  -1.718  -0.843  1.00  0.00    -0.051 A 
ATOM     15  C   UNL     1      13.892  -1.360  -0.267  1.00  0.00     0.044 C 
ENDBRANCH   7   9
ENDBRANCH   1   7
BRANCH   4  16
ATOM     16  N   UNL     1       6.090   0.353   0.198  1.00  0.00     0.066 N 
ATOM     17  O   UNL     1       5.456   0.385   1.280  1.00  0.00    -0.258 OA
ATOM     18  O   UNL     1       6.628   1.373  -0.292  1.00  0.00    -0.258 OA
ENDBRANCH   4  16
BRANCH   5  19
ATOM     19  O   UNL     1       4.221  -3.863  -1.286  1.00  0.00    -0.504 OA
ATOM     20  H   UNL     1       4.039  -4.093  -2.212  1.00  0.00     0.293 HD
ENDBRANCH   5  19
BRANCH   6  21
ATOM     21  O   UNL     1       3.951  -1.475   0.073  1.00  0.00    -0.500 OA
ATOM     22  H   UNL     1       3.216  -1.879  -0.415  1.00  0.00     0.294 HD
ENDBRANCH   6  21
TORSDOF 5
ENDMDL
MODEL 2
REMARK VINA RESULT:    -5.165      2.039      3.554
REMARK INTER + INTRA:          -7.094
REMARK INTER:                  -6.369
REMARK INTRA:                  -0.725
REMARK UNBOUND:                -0.721
REMARK SMILES Cc1ccc(C(=O)c2cc(O)c(O)c([N+](=O)[O-])c2)cc1
REMARK SMILES IDX 8 1 18 2 9 3 14 4 10 5 12 6 6 7 7 8 5 9 4 10 19 11 3 12
REMARK SMILES IDX 20 13 2 14 1 15 15 16 17 17 16 18 11 19 13 21
REMARK H PARENT 11 20 13 22
ROOT
ATOM      1  C   UNL     1       8.016  -1.727  -0.165  1.00  0.00     0.033 A 
ATOM      2  C   UNL     1       7.300  -2.810  -0.620  1.00  0.00     0.102 A 
ATOM      3  C   UNL     1       7.420  -0.594   0.334  1.00  0.00     0.063 A 
ATOM      4  C   UNL     1       5.907  -2.756  -0.570  1.00  0.00     0.315 A 
ATOM      5  C   UNL     1       6.027  -0.539   0.384  1.00  0.00     0.165 A 
ATOM      6  C   UNL     1       5.270  -1.621  -0.068  1.00  0.00     0.237 A 
ENDROOT
BRANCH   1   7
ATOM      7  C   UNL     1       9.509  -1.785  -0.219  1.00  0.00     0.193 C 
ATOM      8  O   UNL     1      10.132  -1.267   0.720  1.00  0.00    -0.289 OA
BRANCH   7   9
ATOM      9  C   UNL     1      10.226  -2.417  -1.315  1.00  0.00     0.023 A 
ATOM     10  C   UNL     1      10.737  -1.639  -2.354  1.00  0.00     0.012 A 
ATOM     11  C   UNL     1      10.403  -3.800  -1.327  1.00  0.00     0.012 A 
ATOM     12  C   UNL     1      11.425  -2.246  -3.404  1.00  0.00     0.004 A 
ATOM     13  C   UNL     1      11.091  -4.407  -2.378  1.00  0.00     0.004 A 
ATOM     14  C   UNL     1      11.603  -3.630  -3.417  1.00  0.00    -0.051 A 
ATOM     15  C   UNL     1      12.337  -4.277  -4.541  1.00  0.00     0.044 C 
ENDBRANCH   7   9
ENDBRANCH   1   7
BRANCH   4  16
ATOM     16  N   UNL     1       5.152  -3.867  -1.035  1.00  0.00     0.066 N 
ATOM     17  O   UNL     1       5.568  -5.026  -0.793  1.00  0.00    -0.258 OA
ATOM     18  O   UNL     1       4.094  -3.657  -1.673  1.00  0.00    -0.258 OA
ENDBRANCH   4  16
BRANCH   5  19
ATOM     19  O   UNL     1       5.419   0.576   0.877  1.00  0.00    -0.504 OA
ATOM     20  H   UNL     1       5.664   1.346   0.337  1.00  0.00     0.293 HD
ENDBRANCH   5  19
BRANCH   6  21
ATOM     21  O   UNL     1       3.908  -1.556  -0.014  1.00  0.00    -0.500 OA
ATOM     22  H   UNL     1       3.562  -1.250  -0.867  1.00  0.00     0.294 HD
ENDBRANCH   6  21
TORSDOF 5
ENDMDL
MODEL 3
REMARK VINA RESULT:    -4.477      3.694      6.842
REMARK INTER + INTRA:          -6.245
REMARK INTER:                  -5.275
REMARK INTRA:                  -0.970
REMARK UNBOUND:                -0.721
REMARK SMILES Cc1ccc(C(=O)c2cc(O)c(O)c([N+](=O)[O-])c2)cc1
REMARK SMILES IDX 8 1 18 2 9 3 14 4 10 5 12 6 6 7 7 8 5 9 4 10 19 11 3 12
REMARK SMILES IDX 20 13 2 14 1 15 15 16 17 17 16 18 11 19 13 21
REMARK H PARENT 11 20 13 22
ROOT
ATOM      1  C   UNL     1      10.941  -1.982  -2.024  1.00  0.00     0.033 A 
ATOM      2  C   UNL     1      12.017  -1.671  -1.225  1.00  0.00     0.102 A 
ATOM      3  C   UNL     1      11.046  -2.776  -3.141  1.00  0.00     0.063 A 
ATOM      4  C   UNL     1      13.269  -2.185  -1.563  1.00  0.00     0.315 A 
ATOM      5  C   UNL     1      12.298  -3.290  -3.480  1.00  0.00     0.165 A 
ATOM      6  C   UNL     1      13.410  -2.994  -2.690  1.00  0.00     0.237 A 
ENDROOT
BRANCH   1   7
ATOM      7  C   UNL     1       9.600  -1.432  -1.662  1.00  0.00     0.193 C 
ATOM      8  O   UNL     1       9.517  -0.207  -1.486  1.00  0.00    -0.289 OA
BRANCH   7   9
ATOM      9  C   UNL     1       8.425  -2.275  -1.516  1.00  0.00     0.023 A 
ATOM     10  C   UNL     1       8.446  -3.355  -0.633  1.00  0.00     0.012 A 
ATOM     11  C   UNL     1       7.276  -2.005  -2.259  1.00  0.00     0.012 A 
ATOM     12  C   UNL     1       7.318  -4.164  -0.493  1.00  0.00     0.004 A 
ATOM     13  C   UNL     1       6.147  -2.814  -2.120  1.00  0.00     0.004 A 
ATOM     14  C   UNL     1       6.168  -3.893  -1.236  1.00  0.00    -0.051 A 
ATOM     15  C   UNL     1       4.964  -4.759  -1.087  1.00  0.00     0.044 C 
ENDBRANCH   7   9
ENDBRANCH   1   7
BRANCH   4  16
ATOM     16  N   UNL     1      14.391  -1.873  -0.747  1.00  0.00     0.066 N 
ATOM     17  O   UNL     1      15.533  -1.863  -1.265  1.00  0.00    -0.258 OA
ATOM     18  O   UNL     1      14.205  -1.616   0.466  1.00  0.00    -0.258 OA
ENDBRANCH   4  16
BRANCH   5  19
ATOM     19  O   UNL     1      12.421  -4.079  -4.583  1.00  0.00    -0.504 OA
ATOM     20  H   UNL     1      13.020  -3.656  -5.221  1.00  0.00     0.293 HD
ENDBRANCH   5  19
BRANCH   6  21
ATOM     21  O   UNL     1      14.630  -3.503  -3.031  1.00  0.00    -0.500 OA
ATOM     22  H   UNL     1      14.639  -4.460  -2.876  1.00  0.00     0.294 HD
ENDBRANCH   6  21
TORSDOF 5
ENDMDL
MODEL 4
REMARK VINA RESULT:    -4.472      3.462      7.176
REMARK INTER + INTRA:          -6.238
REMARK INTER:                  -5.288
REMARK INTRA:                  -0.950
REMARK UNBOUND:                -0.721
REMARK SMILES Cc1ccc(C(=O)c2cc(O)c(O)c([N+](=O)[O-])c2)cc1
REMARK SMILES IDX 8 1 18 2 9 3 14 4 10 5 12 6 6 7 7 8 5 9 4 10 19 11 3 12
REMARK SMILES IDX 20 13 2 14 1 15 15 16 17 17 16 18 11 19 13 21
REMARK H PARENT 11 20 13 22
ROOT
ATOM      1  C   UNL     1      10.879  -1.785  -1.914  1.00  0.00     0.033 A 
ATOM      2  C   UNL     1      11.084  -2.666  -2.949  1.00  0.00     0.102 A 
ATOM      3  C   UNL     1      11.891  -1.349  -1.093  1.00  0.00     0.063 A 
ATOM      4  C   UNL     1      12.377  -3.138  -3.177  1.00  0.00     0.315 A 
ATOM      5  C   UNL     1      13.184  -1.821  -1.320  1.00  0.00     0.165 A 
ATOM      6  C   UNL     1      13.427  -2.715  -2.363  1.00  0.00     0.237 A 
ENDROOT
BRANCH   1   7
ATOM      7  C   UNL     1       9.494  -1.280  -1.669  1.00  0.00     0.193 C 
ATOM      8  O   UNL     1       9.342  -0.051  -1.592  1.00  0.00    -0.289 OA
BRANCH   7   9
ATOM      9  C   UNL     1       8.353  -2.170  -1.525  1.00  0.00     0.023 A 
ATOM     10  C   UNL     1       7.198  -1.951  -2.276  1.00  0.00     0.012 A 
ATOM     11  C   UNL     1       8.414  -3.243  -0.637  1.00  0.00     0.012 A 
ATOM     12  C   UNL     1       6.104  -2.806  -2.138  1.00  0.00     0.004 A 
ATOM     13  C   UNL     1       7.320  -4.099  -0.498  1.00  0.00     0.004 A 
ATOM     14  C   UNL     1       6.165  -3.880  -1.249  1.00  0.00    -0.051 A 
ATOM     15  C   UNL     1       4.995  -4.792  -1.100  1.00  0.00     0.044 C 
ENDBRANCH   7   9
ENDBRANCH   1   7
BRANCH   4  16
ATOM     16  N   UNL     1      12.605  -4.049  -4.245  1.00  0.00     0.066 N 
ATOM     17  O   UNL     1      13.705  -4.015  -4.846  1.00  0.00    -0.258 OA
ATOM     18  O   UNL     1      11.700  -4.860  -4.553  1.00  0.00    -0.258 OA
ENDBRANCH   4  16
BRANCH   5  19
ATOM     19  O   UNL     1      14.201  -1.399  -0.517  1.00  0.00    -0.504 OA
ATOM     20  H   UNL     1      13.866  -0.740   0.113  1.00  0.00     0.293 HD
ENDBRANCH   5  19
BRANCH   6  21
ATOM     21  O   UNL     1      14.696  -3.169  -2.576  1.00  0.00    -0.500 OA
ATOM     22  H   UNL     1      14.743  -3.617  -3.435  1.00  0.00     0.294 HD
ENDBRANCH   6  21
TORSDOF 5
ENDMDL
MODEL 5
REMARK VINA RESULT:    -4.461      3.729      7.029
REMARK INTER + INTRA:          -6.226
REMARK INTER:                  -5.249
REMARK INTRA:                  -0.976
REMARK UNBOUND:                -0.721
REMARK SMILES Cc1ccc(C(=O)c2cc(O)c(O)c([N+](=O)[O-])c2)cc1
REMARK SMILES IDX 8 1 18 2 9 3 14 4 10 5 12 6 6 7 7 8 5 9 4 10 19 11 3 12
REMARK SMILES IDX 20 13 2 14 1 15 15 16 17 17 16 18 11 19 13 21
REMARK H PARENT 11 20 13 22
ROOT
ATOM      1  C   UNL     1      10.887  -3.049  -1.613  1.00  0.00     0.033 A 
ATOM      2  C   UNL     1      11.313  -3.577  -2.810  1.00  0.00     0.102 A 
ATOM      3  C   UNL     1      11.727  -2.389  -0.748  1.00  0.00     0.063 A 
ATOM      4  C   UNL     1      12.656  -3.435  -3.162  1.00  0.00     0.315 A 
ATOM      5  C   UNL     1      13.070  -2.248  -1.099  1.00  0.00     0.165 A 
ATOM      6  C   UNL     1      13.534  -2.771  -2.307  1.00  0.00     0.237 A 
ENDROOT
BRANCH   1   7
ATOM      7  C   UNL     1       9.450  -3.201  -1.237  1.00  0.00     0.193 C 
ATOM      8  O   UNL     1       8.972  -4.346  -1.265  1.00  0.00    -0.289 OA
BRANCH   7   9
ATOM      9  C   UNL     1       8.622  -2.071  -0.848  1.00  0.00     0.023 A 
ATOM     10  C   UNL     1       8.487  -0.978  -1.704  1.00  0.00     0.012 A 
ATOM     11  C   UNL     1       7.961  -2.080   0.380  1.00  0.00     0.012 A 
ATOM     12  C   UNL     1       7.693   0.106  -1.331  1.00  0.00     0.004 A 
ATOM     13  C   UNL     1       7.166  -0.995   0.754  1.00  0.00     0.004 A 
ATOM     14  C   UNL     1       7.032   0.098  -0.102  1.00  0.00    -0.051 A 
ATOM     15  C   UNL     1       6.184   1.257   0.297  1.00  0.00     0.044 C 
ENDBRANCH   7   9
ENDBRANCH   1   7
BRANCH   4  16
ATOM     16  N   UNL     1      13.110  -3.975  -4.396  1.00  0.00     0.066 N 
ATOM     17  O   UNL     1      12.303  -4.065  -5.352  1.00  0.00    -0.258 OA
ATOM     18  O   UNL     1      14.304  -4.344  -4.493  1.00  0.00    -0.258 OA
ENDBRANCH   4  16
BRANCH   5  19
ATOM     19  O   UNL     1      13.917  -1.596  -0.254  1.00  0.00    -0.504 OA
ATOM     20  H   UNL     1      13.792  -0.637  -0.344  1.00  0.00     0.293 HD
ENDBRANCH   5  19
BRANCH   6  21
ATOM     21  O   UNL     1      14.850  -2.625  -2.639  1.00  0.00    -0.500 OA
ATOM     22  H   UNL     1      15.163  -1.752  -2.357  1.00  0.00     0.294 HD
ENDBRANCH   6  21
TORSDOF 5
ENDMDL
MODEL 6
REMARK VINA RESULT:    -4.399      3.606      6.487
REMARK INTER + INTRA:          -6.149
REMARK INTER:                  -5.260
REMARK INTRA:                  -0.888
REMARK UNBOUND:                -0.721
REMARK SMILES Cc1ccc(C(=O)c2cc(O)c(O)c([N+](=O)[O-])c2)cc1
REMARK SMILES IDX 8 1 18 2 9 3 14 4 10 5 12 6 6 7 7 8 5 9 4 10 19 11 3 12
REMARK SMILES IDX 20 13 2 14 1 15 15 16 17 17 16 18 11 19 13 21
REMARK H PARENT 11 20 13 22
ROOT
ATOM      1  C   UNL     1      10.563  -3.400  -1.669  1.00  0.00     0.033 A 
ATOM      2  C   UNL     1      11.570  -2.656  -1.101  1.00  0.00     0.102 A 
ATOM      3  C   UNL     1      10.721  -4.099  -2.843  1.00  0.00     0.063 A 
ATOM      4  C   UNL     1      12.808  -2.609  -1.743  1.00  0.00     0.315 A 
ATOM      5  C   UNL     1      11.958  -4.051  -3.486  1.00  0.00     0.165 A 
ATOM      6  C   UNL     1      13.002  -3.306  -2.935  1.00  0.00     0.237 A 
ENDROOT
BRANCH   1   7
ATOM      7  C   UNL     1       9.237  -3.451  -0.981  1.00  0.00     0.193 C 
ATOM      8  O   UNL     1       8.798  -4.570  -0.675  1.00  0.00    -0.289 OA
BRANCH   7   9
ATOM      9  C   UNL     1       8.473  -2.253  -0.672  1.00  0.00     0.023 A 
ATOM     10  C   UNL     1       8.421  -1.203  -1.588  1.00  0.00     0.012 A 
ATOM     11  C   UNL     1       7.792  -2.155   0.542  1.00  0.00     0.012 A 
ATOM     12  C   UNL     1       7.688  -0.054  -1.291  1.00  0.00     0.004 A 
ATOM     13  C   UNL     1       7.059  -1.006   0.840  1.00  0.00     0.004 A 
ATOM     14  C   UNL     1       7.006   0.045  -0.077  1.00  0.00    -0.051 A 
ATOM     15  C   UNL     1       6.224   1.273   0.241  1.00  0.00     0.044 C 
ENDBRANCH   7   9
ENDBRANCH   1   7
BRANCH   4  16
ATOM     16  N   UNL     1      13.859  -1.844  -1.168  1.00  0.00     0.066 N 
ATOM     17  O   UNL     1      15.045  -2.209  -1.353  1.00  0.00    -0.258 OA
ATOM     18  O   UNL     1      13.571  -0.828  -0.494  1.00  0.00    -0.258 OA
ENDBRANCH   4  16
BRANCH   5  19
ATOM     19  O   UNL     1      12.134  -4.737  -4.649  1.00  0.00    -0.504 OA
ATOM     20  H   UNL     1      11.422  -4.511  -5.271  1.00  0.00     0.293 HD
ENDBRANCH   5  19
BRANCH   6  21
ATOM     21  O   UNL     1      14.208  -3.267  -3.573  1.00  0.00    -0.500 OA
ATOM     22  H   UNL     1      14.643  -4.131  -3.500  1.00  0.00     0.294 HD
ENDBRANCH   6  21
TORSDOF 5
ENDMDL
MODEL 7
REMARK VINA RESULT:    -4.359      3.568      4.421
REMARK INTER + INTRA:          -6.099
REMARK INTER:                  -5.112
REMARK INTRA:                  -0.987
REMARK UNBOUND:                -0.721
REMARK SMILES Cc1ccc(C(=O)c2cc(O)c(O)c([N+](=O)[O-])c2)cc1
REMARK SMILES IDX 8 1 18 2 9 3 14 4 10 5 12 6 6 7 7 8 5 9 4 10 19 11 3 12
REMARK SMILES IDX 20 13 2 14 1 15 15 16 17 17 16 18 11 19 13 21
REMARK H PARENT 11 20 13 22
ROOT
ATOM      1  C   UNL     1      10.655  -3.501  -1.542  1.00  0.00     0.033 A 
ATOM      2  C   UNL     1       9.566  -2.661  -1.535  1.00  0.00     0.102 A 
ATOM      3  C   UNL     1      10.635  -4.752  -0.973  1.00  0.00     0.063 A 
ATOM      4  C   UNL     1       8.390  -3.098  -0.925  1.00  0.00     0.315 A 
ATOM      5  C   UNL     1       9.460  -5.189  -0.362  1.00  0.00     0.165 A 
ATOM      6  C   UNL     1       8.336  -4.362  -0.339  1.00  0.00     0.237 A 
ENDROOT
BRANCH   1   7
ATOM      7  C   UNL     1      11.914  -3.033  -2.194  1.00  0.00     0.193 C 
ATOM      8  O   UNL     1      12.616  -2.227  -1.565  1.00  0.00    -0.289 OA
BRANCH   7   9
ATOM      9  C   UNL     1      12.325  -3.488  -3.513  1.00  0.00     0.023 A 
ATOM     10  C   UNL     1      13.576  -4.080  -3.689  1.00  0.00     0.012 A 
ATOM     11  C   UNL     1      11.468  -3.333  -4.602  1.00  0.00     0.012 A 
ATOM     12  C   UNL     1      13.969  -4.516  -4.954  1.00  0.00     0.004 A 
ATOM     13  C   UNL     1      11.860  -3.769  -5.868  1.00  0.00     0.004 A 
ATOM     14  C   UNL     1      13.111  -4.361  -6.044  1.00  0.00    -0.051 A 
ATOM     15  C   UNL     1      13.533  -4.827  -7.396  1.00  0.00     0.044 C 
ENDBRANCH   7   9
ENDBRANCH   1   7
BRANCH   4  16
ATOM     16  N   UNL     1       7.255  -2.241  -0.911  1.00  0.00     0.066 N 
ATOM     17  O   UNL     1       6.537  -2.202   0.117  1.00  0.00    -0.258 OA
ATOM     18  O   UNL     1       7.007  -1.548  -1.925  1.00  0.00    -0.258 OA
ENDBRANCH   4  16
BRANCH   5  19
ATOM     19  O   UNL     1       9.422  -6.427   0.207  1.00  0.00    -0.504 OA
ATOM     20  H   UNL     1       8.561  -6.561   0.636  1.00  0.00     0.293 HD
ENDBRANCH   5  19
BRANCH   6  21
ATOM     21  O   UNL     1       7.191  -4.801   0.261  1.00  0.00    -0.500 OA
ATOM     22  H   UNL     1       6.982  -4.234   1.019  1.00  0.00     0.294 HD
ENDBRANCH   6  21
TORSDOF 5
ENDMDL
MODEL 8
REMARK VINA RESULT:    -4.287      1.237      2.678
REMARK INTER + INTRA:          -6.010
REMARK INTER:                  -5.347
REMARK INTRA:                  -0.663
REMARK UNBOUND:                -0.721
REMARK SMILES Cc1ccc(C(=O)c2cc(O)c(O)c([N+](=O)[O-])c2)cc1
REMARK SMILES IDX 8 1 18 2 9 3 14 4 10 5 12 6 6 7 7 8 5 9 4 10 19 11 3 12
REMARK SMILES IDX 20 13 2 14 1 15 15 16 17 17 16 18 11 19 13 21
REMARK H PARENT 11 20 13 22
ROOT
ATOM      1  C   UNL     1       8.018  -2.333  -1.751  1.00  0.00     0.033 A 
ATOM      2  C   UNL     1       7.013  -3.272  -1.739  1.00  0.00     0.102 A 
ATOM      3  C   UNL     1       7.870  -1.074  -1.220  1.00  0.00     0.063 A 
ATOM      4  C   UNL     1       5.790  -2.932  -1.162  1.00  0.00     0.315 A 
ATOM      5  C   UNL     1       6.646  -0.734  -0.643  1.00  0.00     0.165 A 
ATOM      6  C   UNL     1       5.606  -1.664  -0.613  1.00  0.00     0.237 A 
ENDROOT
BRANCH   1   7
ATOM      7  C   UNL     1       9.329  -2.696  -2.370  1.00  0.00     0.193 C 
ATOM      8  O   UNL     1       9.299  -3.318  -3.443  1.00  0.00    -0.289 OA
BRANCH   7   9
ATOM      9  C   UNL     1      10.602  -2.348  -1.760  1.00  0.00     0.023 A 
ATOM     10  C   UNL     1      11.290  -3.289  -0.994  1.00  0.00     0.012 A 
ATOM     11  C   UNL     1      11.137  -1.073  -1.942  1.00  0.00     0.012 A 
ATOM     12  C   UNL     1      12.511  -2.955  -0.410  1.00  0.00     0.004 A 
ATOM     13  C   UNL     1      12.359  -0.737  -1.357  1.00  0.00     0.004 A 
ATOM     14  C   UNL     1      13.046  -1.679  -0.591  1.00  0.00    -0.051 A 
ATOM     15  C   UNL     1      14.351  -1.322   0.035  1.00  0.00     0.044 C 
ENDBRANCH   7   9
ENDBRANCH   1   7
BRANCH   4  16
ATOM     16  N   UNL     1       4.742  -3.893  -1.142  1.00  0.00     0.066 N 
ATOM     17  O   UNL     1       4.942  -4.997  -0.580  1.00  0.00    -0.258 OA
ATOM     18  O   UNL     1       3.649  -3.608  -1.684  1.00  0.00    -0.258 OA
ENDBRANCH   4  16
BRANCH   5  19
ATOM     19  O   UNL     1       6.480   0.510  -0.110  1.00  0.00    -0.504 OA
ATOM     20  H   UNL     1       5.532   0.707  -0.034  1.00  0.00     0.293 HD
ENDBRANCH   5  19
BRANCH   6  21
ATOM     21  O   UNL     1       4.413  -1.319  -0.046  1.00  0.00    -0.500 OA
ATOM     22  H   UNL     1       3.703  -1.857  -0.428  1.00  0.00     0.294 HD
ENDBRANCH   6  21
TORSDOF 5
ENDMDL
MODEL 9
REMARK VINA RESULT:    -4.274      1.933      2.629
REMARK INTER + INTRA:          -5.994
REMARK INTER:                  -5.339
REMARK INTRA:                  -0.655
REMARK UNBOUND:                -0.721
REMARK SMILES Cc1ccc(C(=O)c2cc(O)c(O)c([N+](=O)[O-])c2)cc1
REMARK SMILES IDX 8 1 18 2 9 3 14 4 10 5 12 6 6 7 7 8 5 9 4 10 19 11 3 12
REMARK SMILES IDX 20 13 2 14 1 15 15 16 17 17 16 18 11 19 13 21
REMARK H PARENT 11 20 13 22
ROOT
ATOM      1  C   UNL     1       8.419  -1.926  -0.453  1.00  0.00     0.033 A 
ATOM      2  C   UNL     1       7.821  -0.756  -0.045  1.00  0.00     0.102 A 
ATOM      3  C   UNL     1       7.708  -3.065  -0.748  1.00  0.00     0.063 A 
ATOM      4  C   UNL     1       6.432  -0.723   0.073  1.00  0.00     0.315 A 
ATOM      5  C   UNL     1       6.318  -3.032  -0.628  1.00  0.00     0.165 A 
ATOM      6  C   UNL     1       5.680  -1.861  -0.218  1.00  0.00     0.237 A 
ENDROOT
BRANCH   1   7
ATOM      7  C   UNL     1       9.908  -1.961  -0.581  1.00  0.00     0.193 C 
ATOM      8  O   UNL     1      10.569  -1.431   0.325  1.00  0.00    -0.289 OA
BRANCH   7   9
ATOM      9  C   UNL     1      10.579  -2.586  -1.709  1.00  0.00     0.023 A 
ATOM     10  C   UNL     1      11.029  -1.803  -2.773  1.00  0.00     0.012 A 
ATOM     11  C   UNL     1      10.774  -3.966  -1.728  1.00  0.00     0.012 A 
ATOM     12  C   UNL     1      11.673  -2.403  -3.855  1.00  0.00     0.004 A 
ATOM     13  C   UNL     1      11.419  -4.566  -2.810  1.00  0.00     0.004 A 
ATOM     14  C   UNL     1      11.868  -3.784  -3.874  1.00  0.00    -0.051 A 
ATOM     15  C   UNL     1      12.556  -4.424  -5.032  1.00  0.00     0.044 C 
ENDBRANCH   7   9
ENDBRANCH   1   7
BRANCH   4  16
ATOM     16  N   UNL     1       5.800   0.479   0.493  1.00  0.00     0.066 N 
ATOM     17  O   UNL     1       5.970   1.522  -0.183  1.00  0.00    -0.258 OA
ATOM     18  O   UNL     1       5.090   0.461   1.526  1.00  0.00    -0.258 OA
ENDBRANCH   4  16
BRANCH   5  19
ATOM     19  O   UNL     1       5.596  -4.151  -0.917  1.00  0.00    -0.504 OA
ATOM     20  H   UNL     1       5.924  -4.547  -1.741  1.00  0.00     0.293 HD
ENDBRANCH   5  19
BRANCH   6  21
ATOM     21  O   UNL     1       4.320  -1.842  -0.106  1.00  0.00    -0.500 OA
ATOM     22  H   UNL     1       4.019  -2.642   0.353  1.00  0.00     0.294 HD
ENDBRANCH   6  21
TORSDOF 5
ENDMDL
