MODEL 1
REMARK VINA RESULT:    -6.913      0.000      0.000
REMARK INTER + INTRA:          -8.687
REMARK INTER:                  -8.126
REMARK INTRA:                  -0.561
REMARK UNBOUND:                -0.561
REMARK SMILES O=C(O)c1cc(-c2ccc(F)cc2F)ccc1O
REMARK SMILES IDX 6 1 5 2 15 3 4 4 17 5 16 6 7 7 13 8 12 9 8 10 10 11 9 12
REMARK SMILES IDX 14 13 11 14 2 15 1 16 3 17 18 19
REMARK H PARENT 3 18 18 20
ROOT
ATOM      1  C   UNL     1       7.839  -2.067  -1.043  1.00  0.00    -0.014 A 
ATOM      2  C   UNL     1       7.458  -0.866  -0.445  1.00  0.00     0.028 A 
ATOM      3  C   UNL     1       6.888  -3.059  -1.282  1.00  0.00     0.013 A 
ATOM      4  C   UNL     1       6.127  -0.657  -0.086  1.00  0.00     0.102 A 
ATOM      5  C   UNL     1       5.176  -1.649  -0.324  1.00  0.00     0.130 A 
ATOM      6  C   UNL     1       5.557  -2.851  -0.923  1.00  0.00     0.048 A 
ENDROOT
BRANCH   1   7
ATOM      7  C   UNL     1       9.220  -2.285  -1.415  1.00  0.00     0.018 A 
ATOM      8  C   UNL     1       9.946  -1.271  -2.040  1.00  0.00     0.133 A 
ATOM      9  C   UNL     1      11.278  -1.486  -2.397  1.00  0.00     0.079 A 
ATOM     10  C   UNL     1       9.826  -3.513  -1.146  1.00  0.00     0.015 A 
ATOM     11  C   UNL     1      11.883  -2.713  -2.129  1.00  0.00     0.126 A 
ATOM     12  C   UNL     1      11.156  -3.726  -1.503  1.00  0.00     0.040 A 
ATOM     13  F   UNL     1       9.378  -0.086  -2.308  1.00  0.00    -0.206 F 
ATOM     14  F   UNL     1      13.161  -2.920  -2.472  1.00  0.00    -0.207 F 
ENDBRANCH   1   7
BRANCH   4  15
ATOM     15  C   UNL     1       5.749   0.604   0.537  1.00  0.00     0.339 C 
ATOM     16  O   UNL     1       5.127   0.720   1.596  1.00  0.00    -0.246 OA
BRANCH  15  17
ATOM     17  O   UNL     1       6.163   1.682  -0.183  1.00  0.00    -0.478 OA
ATOM     18  H   UNL     1       5.520   2.421  -0.136  1.00  0.00     0.297 HD
ENDBRANCH  15  17
ENDBRANCH   4  15
BRANCH   5  19
ATOM     19  O   UNL     1       3.870  -1.464   0.019  1.00  0.00    -0.507 OA
ATOM     20  H   UNL     1       3.304  -1.902  -0.640  1.00  0.00     0.293 HD
ENDBRANCH   5  19
TORSDOF 4
ENDMDL
MODEL 2
REMARK VINA RESULT:    -6.910      1.123      1.606
REMARK INTER + INTRA:          -8.683
REMARK INTER:                  -8.123
REMARK INTRA:                  -0.560
REMARK UNBOUND:                -0.561
REMARK SMILES O=C(O)c1cc(-c2ccc(F)cc2F)ccc1O
REMARK SMILES IDX 6 1 5 2 15 3 4 4 17 5 16 6 7 7 13 8 12 9 8 10 10 11 9 12
REMARK SMILES IDX 14 13 11 14 2 15 1 16 3 17 18 19
REMARK H PARENT 3 18 18 20
ROOT
ATOM      1  C   UNL     1       7.841  -2.091  -1.009  1.00  0.00    -0.014 A 
ATOM      2  C   UNL     1       7.461  -0.885  -0.422  1.00  0.00     0.028 A 
ATOM      3  C   UNL     1       6.888  -3.082  -1.247  1.00  0.00     0.013 A 
ATOM      4  C   UNL     1       6.128  -0.668  -0.072  1.00  0.00     0.102 A 
ATOM      5  C   UNL     1       5.175  -1.658  -0.310  1.00  0.00     0.130 A 
ATOM      6  C   UNL     1       5.555  -2.866  -0.898  1.00  0.00     0.048 A 
ENDROOT
BRANCH   1   7
ATOM      7  C   UNL     1       9.224  -2.317  -1.371  1.00  0.00     0.018 A 
ATOM      8  C   UNL     1       9.834  -3.537  -1.076  1.00  0.00     0.133 A 
ATOM      9  C   UNL     1      11.168  -3.751  -1.427  1.00  0.00     0.079 A 
ATOM     10  C   UNL     1       9.945  -1.314  -2.016  1.00  0.00     0.015 A 
ATOM     11  C   UNL     1      11.889  -2.747  -2.071  1.00  0.00     0.126 A 
ATOM     12  C   UNL     1      11.278  -1.528  -2.366  1.00  0.00     0.040 A 
ATOM     13  F   UNL     1       9.155  -4.511  -0.454  1.00  0.00    -0.206 F 
ATOM     14  F   UNL     1      13.169  -2.951  -2.407  1.00  0.00    -0.207 F 
ENDBRANCH   1   7
BRANCH   4  15
ATOM     15  C   UNL     1       5.751   0.599   0.540  1.00  0.00     0.339 C 
ATOM     16  O   UNL     1       5.130   0.723   1.598  1.00  0.00    -0.246 OA
BRANCH  15  17
ATOM     17  O   UNL     1       6.165   1.670  -0.190  1.00  0.00    -0.478 OA
ATOM     18  H   UNL     1       6.452   1.409  -1.090  1.00  0.00     0.297 HD
ENDBRANCH  15  17
ENDBRANCH   4  15
BRANCH   5  19
ATOM     19  O   UNL     1       3.867  -1.466   0.023  1.00  0.00    -0.507 OA
ATOM     20  H   UNL     1       3.804  -1.305   0.981  1.00  0.00     0.293 HD
ENDBRANCH   5  19
TORSDOF 4
ENDMDL
MODEL 3
REMARK VINA RESULT:    -6.825      1.700      3.187
REMARK INTER + INTRA:          -8.583
REMARK INTER:                  -7.904
REMARK INTRA:                  -0.680
REMARK UNBOUND:                -0.561
REMARK SMILES O=C(O)c1cc(-c2ccc(F)cc2F)ccc1O
REMARK SMILES IDX 6 1 5 2 15 3 4 4 17 5 16 6 7 7 13 8 12 9 8 10 10 11 9 12
REMARK SMILES IDX 14 13 11 14 2 15 1 16 3 17 18 19
REMARK H PARENT 3 18 18 20
ROOT
ATOM      1  C   UNL     1       7.899  -2.184  -0.975  1.00  0.00    -0.014 A 
ATOM      2  C   UNL     1       6.981  -3.179  -1.306  1.00  0.00     0.028 A 
ATOM      3  C   UNL     1       7.475  -1.039  -0.300  1.00  0.00     0.013 A 
ATOM      4  C   UNL     1       5.637  -3.030  -0.963  1.00  0.00     0.102 A 
ATOM      5  C   UNL     1       5.212  -1.885  -0.288  1.00  0.00     0.130 A 
ATOM      6  C   UNL     1       6.132  -0.889   0.043  1.00  0.00     0.048 A 
ENDROOT
BRANCH   1   7
ATOM      7  C   UNL     1       9.294  -2.337  -1.332  1.00  0.00     0.018 A 
ATOM      8  C   UNL     1       9.957  -3.535  -1.067  1.00  0.00     0.133 A 
ATOM      9  C   UNL     1      11.301  -3.678  -1.412  1.00  0.00     0.079 A 
ATOM     10  C   UNL     1       9.973  -1.283  -1.943  1.00  0.00     0.015 A 
ATOM     11  C   UNL     1      11.981  -2.625  -2.023  1.00  0.00     0.126 A 
ATOM     12  C   UNL     1      11.316  -1.428  -2.288  1.00  0.00     0.040 A 
ATOM     13  F   UNL     1       9.319  -4.556  -0.478  1.00  0.00    -0.206 F 
ATOM     14  F   UNL     1      13.271  -2.762  -2.355  1.00  0.00    -0.207 F 
ENDBRANCH   1   7
BRANCH   4  15
ATOM     15  C   UNL     1       4.693  -4.081  -1.318  1.00  0.00     0.339 C 
ATOM     16  O   UNL     1       3.547  -3.899  -1.736  1.00  0.00    -0.246 OA
BRANCH  15  17
ATOM     17  O   UNL     1       5.213  -5.326  -1.140  1.00  0.00    -0.478 OA
ATOM     18  H   UNL     1       5.151  -5.867  -1.955  1.00  0.00     0.297 HD
ENDBRANCH  15  17
ENDBRANCH   4  15
BRANCH   5  19
ATOM     19  O   UNL     1       3.904  -1.721   0.057  1.00  0.00    -0.507 OA
ATOM     20  H   UNL     1       3.715  -2.253   0.850  1.00  0.00     0.293 HD
ENDBRANCH   5  19
TORSDOF 4
ENDMDL
MODEL 4
REMARK VINA RESULT:    -6.801      1.289      2.749
REMARK INTER + INTRA:          -8.555
REMARK INTER:                  -7.887
REMARK INTRA:                  -0.668
REMARK UNBOUND:                -0.561
REMARK SMILES O=C(O)c1cc(-c2ccc(F)cc2F)ccc1O
REMARK SMILES IDX 6 1 5 2 15 3 4 4 17 5 16 6 7 7 13 8 12 9 8 10 10 11 9 12
REMARK SMILES IDX 14 13 11 14 2 15 1 16 3 17 18 19
REMARK H PARENT 3 18 18 20
ROOT
ATOM      1  C   UNL     1       7.875  -2.163  -0.997  1.00  0.00    -0.014 A 
ATOM      2  C   UNL     1       6.958  -3.161  -1.324  1.00  0.00     0.028 A 
ATOM      3  C   UNL     1       7.450  -1.021  -0.318  1.00  0.00     0.013 A 
ATOM      4  C   UNL     1       5.615  -3.019  -0.972  1.00  0.00     0.102 A 
ATOM      5  C   UNL     1       5.191  -1.877  -0.292  1.00  0.00     0.130 A 
ATOM      6  C   UNL     1       6.109  -0.878   0.035  1.00  0.00     0.048 A 
ENDROOT
BRANCH   1   7
ATOM      7  C   UNL     1       9.267  -2.310  -1.364  1.00  0.00     0.018 A 
ATOM      8  C   UNL     1       9.943  -1.258  -1.983  1.00  0.00     0.133 A 
ATOM      9  C   UNL     1      11.285  -1.404  -2.335  1.00  0.00     0.079 A 
ATOM     10  C   UNL     1       9.933  -3.506  -1.096  1.00  0.00     0.015 A 
ATOM     11  C   UNL     1      11.951  -2.600  -2.067  1.00  0.00     0.126 A 
ATOM     12  C   UNL     1      11.274  -3.650  -1.447  1.00  0.00     0.040 A 
ATOM     13  F   UNL     1       9.317  -0.103  -2.250  1.00  0.00    -0.206 F 
ATOM     14  F   UNL     1      13.239  -2.740  -2.405  1.00  0.00    -0.207 F 
ENDBRANCH   1   7
BRANCH   4  15
ATOM     15  C   UNL     1       4.674  -4.073  -1.322  1.00  0.00     0.339 C 
ATOM     16  O   UNL     1       3.527  -3.895  -1.739  1.00  0.00    -0.246 OA
BRANCH  15  17
ATOM     17  O   UNL     1       5.196  -5.316  -1.141  1.00  0.00    -0.478 OA
ATOM     18  H   UNL     1       4.852  -5.742  -0.328  1.00  0.00     0.297 HD
ENDBRANCH  15  17
ENDBRANCH   4  15
BRANCH   5  19
ATOM     19  O   UNL     1       3.884  -1.719   0.062  1.00  0.00    -0.507 OA
ATOM     20  H   UNL     1       3.817  -0.999   0.713  1.00  0.00     0.293 HD
ENDBRANCH   5  19
TORSDOF 4
ENDMDL
MODEL 5
REMARK VINA RESULT:    -5.389      4.179      6.457
REMARK INTER + INTRA:          -6.895
REMARK INTER:                  -5.835
REMARK INTRA:                  -1.060
REMARK UNBOUND:                -0.561
REMARK SMILES O=C(O)c1cc(-c2ccc(F)cc2F)ccc1O
REMARK SMILES IDX 6 1 5 2 15 3 4 4 17 5 16 6 7 7 13 8 12 9 8 10 10 11 9 12
REMARK SMILES IDX 14 13 11 14 2 15 1 16 3 17 18 19
REMARK H PARENT 3 18 18 20
ROOT
ATOM      1  C   UNL     1      10.367  -2.539  -1.658  1.00  0.00    -0.014 A 
ATOM      2  C   UNL     1      11.342  -1.935  -0.865  1.00  0.00     0.028 A 
ATOM      3  C   UNL     1      10.740  -3.272  -2.785  1.00  0.00     0.013 A 
ATOM      4  C   UNL     1      12.691  -2.063  -1.198  1.00  0.00     0.102 A 
ATOM      5  C   UNL     1      13.064  -2.795  -2.325  1.00  0.00     0.130 A 
ATOM      6  C   UNL     1      12.088  -3.400  -3.119  1.00  0.00     0.048 A 
ENDROOT
BRANCH   1   7
ATOM      7  C   UNL     1       8.968  -2.406  -1.313  1.00  0.00     0.018 A 
ATOM      8  C   UNL     1       8.315  -3.431  -0.627  1.00  0.00     0.133 A 
ATOM      9  C   UNL     1       6.966  -3.299  -0.297  1.00  0.00     0.079 A 
ATOM     10  C   UNL     1       8.273  -1.250  -1.668  1.00  0.00     0.015 A 
ATOM     11  C   UNL     1       6.271  -2.143  -0.652  1.00  0.00     0.126 A 
ATOM     12  C   UNL     1       6.925  -1.119  -1.337  1.00  0.00     0.040 A 
ATOM     13  F   UNL     1       8.968  -4.550  -0.282  1.00  0.00    -0.206 F 
ATOM     14  F   UNL     1       4.976  -2.015  -0.336  1.00  0.00    -0.207 F 
ENDBRANCH   1   7
BRANCH   4  15
ATOM     15  C   UNL     1      13.693  -1.425  -0.357  1.00  0.00     0.339 C 
ATOM     16  O   UNL     1      14.872  -1.235  -0.669  1.00  0.00    -0.246 OA
BRANCH  15  17
ATOM     17  O   UNL     1      13.191  -1.042   0.848  1.00  0.00    -0.478 OA
ATOM     18  H   UNL     1      12.228  -0.867   0.803  1.00  0.00     0.297 HD
ENDBRANCH  15  17
ENDBRANCH   4  15
BRANCH   5  19
ATOM     19  O   UNL     1      14.376  -2.933  -2.668  1.00  0.00    -0.507 OA
ATOM     20  H   UNL     1      14.477  -2.749  -3.618  1.00  0.00     0.293 HD
ENDBRANCH   5  19
TORSDOF 4
ENDMDL
MODEL 6
REMARK VINA RESULT:    -5.382      4.365      6.683
REMARK INTER + INTRA:          -6.887
REMARK INTER:                  -5.825
REMARK INTRA:                  -1.062
REMARK UNBOUND:                -0.561
REMARK SMILES O=C(O)c1cc(-c2ccc(F)cc2F)ccc1O
REMARK SMILES IDX 6 1 5 2 15 3 4 4 17 5 16 6 7 7 13 8 12 9 8 10 10 11 9 12
REMARK SMILES IDX 14 13 11 14 2 15 1 16 3 17 18 19
REMARK H PARENT 3 18 18 20
ROOT
ATOM      1  C   UNL     1      10.381  -2.340  -1.705  1.00  0.00    -0.014 A 
ATOM      2  C   UNL     1      10.645  -3.119  -2.831  1.00  0.00     0.028 A 
ATOM      3  C   UNL     1      11.435  -1.820  -0.954  1.00  0.00     0.013 A 
ATOM      4  C   UNL     1      11.964  -3.377  -3.208  1.00  0.00     0.102 A 
ATOM      5  C   UNL     1      13.017  -2.856  -2.457  1.00  0.00     0.130 A 
ATOM      6  C   UNL     1      12.753  -2.077  -1.330  1.00  0.00     0.048 A 
ENDROOT
BRANCH   1   7
ATOM      7  C   UNL     1       9.014  -2.074  -1.313  1.00  0.00     0.018 A 
ATOM      8  C   UNL     1       8.408  -0.866  -1.662  1.00  0.00     0.133 A 
ATOM      9  C   UNL     1       7.090  -0.613  -1.282  1.00  0.00     0.079 A 
ATOM     10  C   UNL     1       8.301  -3.027  -0.586  1.00  0.00     0.015 A 
ATOM     11  C   UNL     1       6.378  -1.566  -0.554  1.00  0.00     0.126 A 
ATOM     12  C   UNL     1       6.984  -2.773  -0.207  1.00  0.00     0.040 A 
ATOM     13  F   UNL     1       9.079   0.062  -2.358  1.00  0.00    -0.206 F 
ATOM     14  F   UNL     1       5.112  -1.324  -0.189  1.00  0.00    -0.207 F 
ENDBRANCH   1   7
BRANCH   4  15
ATOM     15  C   UNL     1      12.218  -4.191  -4.388  1.00  0.00     0.339 C 
ATOM     16  O   UNL     1      13.321  -4.623  -4.732  1.00  0.00    -0.246 OA
BRANCH  15  17
ATOM     17  O   UNL     1      11.086  -4.441  -5.099  1.00  0.00    -0.478 OA
ATOM     18  H   UNL     1      11.124  -5.310  -5.553  1.00  0.00     0.297 HD
ENDBRANCH  15  17
ENDBRANCH   4  15
BRANCH   5  19
ATOM     19  O   UNL     1      14.313  -3.095  -2.808  1.00  0.00    -0.507 OA
ATOM     20  H   UNL     1      14.504  -2.638  -3.646  1.00  0.00     0.293 HD
ENDBRANCH   5  19
TORSDOF 4
ENDMDL
MODEL 7
REMARK VINA RESULT:    -4.787      1.532      1.870
REMARK INTER + INTRA:          -6.188
REMARK INTER:                  -5.235
REMARK INTRA:                  -0.953
REMARK UNBOUND:                -0.561
REMARK SMILES O=C(O)c1cc(-c2ccc(F)cc2F)ccc1O
REMARK SMILES IDX 6 1 5 2 15 3 4 4 17 5 16 6 7 7 13 8 12 9 8 10 10 11 9 12
REMARK SMILES IDX 14 13 11 14 2 15 1 16 3 17 18 19
REMARK H PARENT 3 18 18 20
ROOT
ATOM      1  C   UNL     1       9.148  -2.492  -1.236  1.00  0.00    -0.014 A 
ATOM      2  C   UNL     1       8.654  -1.188  -1.243  1.00  0.00     0.028 A 
ATOM      3  C   UNL     1       8.416  -3.512  -0.628  1.00  0.00     0.013 A 
ATOM      4  C   UNL     1       7.427  -0.903  -0.642  1.00  0.00     0.102 A 
ATOM      5  C   UNL     1       6.695  -1.923  -0.034  1.00  0.00     0.130 A 
ATOM      6  C   UNL     1       7.190  -3.228  -0.027  1.00  0.00     0.048 A 
ENDROOT
BRANCH   1   7
ATOM      7  C   UNL     1      10.421  -2.788  -1.857  1.00  0.00     0.018 A 
ATOM      8  C   UNL     1      11.600  -2.273  -1.318  1.00  0.00     0.133 A 
ATOM      9  C   UNL     1      12.825  -2.561  -1.921  1.00  0.00     0.079 A 
ATOM     10  C   UNL     1      10.466  -3.591  -2.997  1.00  0.00     0.015 A 
ATOM     11  C   UNL     1      12.871  -3.363  -3.060  1.00  0.00     0.126 A 
ATOM     12  C   UNL     1      11.691  -3.878  -3.598  1.00  0.00     0.040 A 
ATOM     13  F   UNL     1      11.573  -1.498  -0.225  1.00  0.00    -0.206 F 
ATOM     14  F   UNL     1      14.046  -3.640  -3.639  1.00  0.00    -0.207 F 
ENDBRANCH   1   7
BRANCH   4  15
ATOM     15  C   UNL     1       6.929   0.465  -0.661  1.00  0.00     0.339 C 
ATOM     16  O   UNL     1       6.011   0.900   0.038  1.00  0.00    -0.246 OA
BRANCH  15  17
ATOM     17  O   UNL     1       7.595   1.247  -1.554  1.00  0.00    -0.478 OA
ATOM     18  H   UNL     1       7.028   1.968  -1.901  1.00  0.00     0.297 HD
ENDBRANCH  15  17
ENDBRANCH   4  15
BRANCH   5  19
ATOM     19  O   UNL     1       5.494  -1.665   0.557  1.00  0.00    -0.507 OA
ATOM     20  H   UNL     1       5.379  -0.702   0.636  1.00  0.00     0.293 HD
ENDBRANCH   5  19
TORSDOF 4
ENDMDL
