MODEL 1
REMARK VINA RESULT:    -6.818      0.000      0.000
REMARK INTER + INTRA:          -8.660
REMARK INTER:                  -8.014
REMARK INTRA:                  -0.646
REMARK UNBOUND:                -0.646
REMARK SMILES O=C(O)c1cc(-c2ccc(F)cc2F)ccc1O
REMARK SMILES IDX 6 1 5 2 15 3 4 4 17 5 16 6 7 7 13 8 12 9 8 10 10 11 9 12
REMARK SMILES IDX 14 13 11 14 2 15 1 16 3 17 18 19
REMARK H PARENT 3 18 18 20
ROOT
ATOM      1  C   UNL     1      -5.151  -1.381   5.541  1.00  0.00    -0.014 A 
ATOM      2  C   UNL     1      -4.837  -0.053   5.258  1.00  0.00     0.028 A 
ATOM      3  C   UNL     1      -4.352  -2.409   5.042  1.00  0.00     0.013 A 
ATOM      4  C   UNL     1      -3.722   0.249   4.475  1.00  0.00     0.102 A 
ATOM      5  C   UNL     1      -2.922  -0.779   3.975  1.00  0.00     0.130 A 
ATOM      6  C   UNL     1      -3.237  -2.109   4.259  1.00  0.00     0.048 A 
ENDROOT
BRANCH   1   7
ATOM      7  C   UNL     1      -6.308  -1.695   6.352  1.00  0.00     0.018 A 
ATOM      8  C   UNL     1      -6.544  -0.995   7.536  1.00  0.00     0.133 A 
ATOM      9  C   UNL     1      -7.660  -1.301   8.315  1.00  0.00     0.079 A 
ATOM     10  C   UNL     1      -7.188  -2.698   5.948  1.00  0.00     0.015 A 
ATOM     11  C   UNL     1      -8.540  -2.304   7.911  1.00  0.00     0.126 A 
ATOM     12  C   UNL     1      -8.304  -3.003   6.726  1.00  0.00     0.040 A 
ATOM     13  F   UNL     1      -5.706  -0.030   7.941  1.00  0.00    -0.206 F 
ATOM     14  F   UNL     1      -9.611  -2.598   8.658  1.00  0.00    -0.207 F 
ENDBRANCH   1   7
BRANCH   4  15
ATOM     15  C   UNL     1      -3.410   1.643   4.190  1.00  0.00     0.339 C 
ATOM     16  O   UNL     1      -3.077   2.089   3.090  1.00  0.00    -0.246 OA
BRANCH  15  17
ATOM     17  O   UNL     1      -3.526   2.434   5.291  1.00  0.00    -0.478 OA
ATOM     18  H   UNL     1      -4.464   2.619   5.510  1.00  0.00     0.297 HD
ENDBRANCH  15  17
ENDBRANCH   4  15
BRANCH   5  19
ATOM     19  O   UNL     1      -1.829  -0.506   3.209  1.00  0.00    -0.507 OA
ATOM     20  H   UNL     1      -2.123  -0.230   2.323  1.00  0.00     0.293 HD
ENDBRANCH   5  19
TORSDOF 4
ENDMDL
MODEL 2
REMARK VINA RESULT:    -6.788      1.279      2.740
REMARK INTER + INTRA:          -8.624
REMARK INTER:                  -8.039
REMARK INTRA:                  -0.586
REMARK UNBOUND:                -0.646
REMARK SMILES O=C(O)c1cc(-c2ccc(F)cc2F)ccc1O
REMARK SMILES IDX 6 1 5 2 15 3 4 4 17 5 16 6 7 7 13 8 12 9 8 10 10 11 9 12
REMARK SMILES IDX 14 13 11 14 2 15 1 16 3 17 18 19
REMARK H PARENT 3 18 18 20
ROOT
ATOM      1  C   UNL     1      -5.147  -1.387   5.465  1.00  0.00    -0.014 A 
ATOM      2  C   UNL     1      -4.413  -2.461   4.966  1.00  0.00     0.028 A 
ATOM      3  C   UNL     1      -4.762  -0.080   5.166  1.00  0.00     0.013 A 
ATOM      4  C   UNL     1      -3.293  -2.231   4.167  1.00  0.00     0.102 A 
ATOM      5  C   UNL     1      -2.908  -0.924   3.867  1.00  0.00     0.130 A 
ATOM      6  C   UNL     1      -3.643   0.152   4.367  1.00  0.00     0.048 A 
ENDROOT
BRANCH   1   7
ATOM      7  C   UNL     1      -6.308  -1.625   6.295  1.00  0.00     0.018 A 
ATOM      8  C   UNL     1      -6.487  -0.901   7.474  1.00  0.00     0.133 A 
ATOM      9  C   UNL     1      -7.608  -1.135   8.272  1.00  0.00     0.079 A 
ATOM     10  C   UNL     1      -7.249  -2.581   5.914  1.00  0.00     0.015 A 
ATOM     11  C   UNL     1      -8.549  -2.091   7.890  1.00  0.00     0.126 A 
ATOM     12  C   UNL     1      -8.369  -2.814   6.711  1.00  0.00     0.040 A 
ATOM     13  F   UNL     1      -5.591   0.019   7.857  1.00  0.00    -0.206 F 
ATOM     14  F   UNL     1      -9.625  -2.315   8.655  1.00  0.00    -0.207 F 
ENDBRANCH   1   7
BRANCH   4  15
ATOM     15  C   UNL     1      -2.539  -3.367   3.655  1.00  0.00     0.339 C 
ATOM     16  O   UNL     1      -1.323  -3.530   3.777  1.00  0.00    -0.246 OA
BRANCH  15  17
ATOM     17  O   UNL     1      -3.331  -4.265   3.007  1.00  0.00    -0.478 OA
ATOM     18  H   UNL     1      -2.889  -5.133   2.904  1.00  0.00     0.297 HD
ENDBRANCH  15  17
ENDBRANCH   4  15
BRANCH   5  19
ATOM     19  O   UNL     1      -1.817  -0.677   3.088  1.00  0.00    -0.507 OA
ATOM     20  H   UNL     1      -2.103  -0.218   2.278  1.00  0.00     0.293 HD
ENDBRANCH   5  19
TORSDOF 4
ENDMDL
MODEL 3
REMARK VINA RESULT:    -6.788      1.683      3.175
REMARK INTER + INTRA:          -8.624
REMARK INTER:                  -8.044
REMARK INTRA:                  -0.580
REMARK UNBOUND:                -0.646
REMARK SMILES O=C(O)c1cc(-c2ccc(F)cc2F)ccc1O
REMARK SMILES IDX 6 1 5 2 15 3 4 4 17 5 16 6 7 7 13 8 12 9 8 10 10 11 9 12
REMARK SMILES IDX 14 13 11 14 2 15 1 16 3 17 18 19
REMARK H PARENT 3 18 18 20
ROOT
ATOM      1  C   UNL     1      -5.169  -1.402   5.447  1.00  0.00    -0.014 A 
ATOM      2  C   UNL     1      -4.427  -2.474   4.951  1.00  0.00     0.028 A 
ATOM      3  C   UNL     1      -4.787  -0.094   5.151  1.00  0.00     0.013 A 
ATOM      4  C   UNL     1      -3.303  -2.238   4.160  1.00  0.00     0.102 A 
ATOM      5  C   UNL     1      -2.921  -0.929   3.864  1.00  0.00     0.130 A 
ATOM      6  C   UNL     1      -3.663   0.143   4.360  1.00  0.00     0.048 A 
ENDROOT
BRANCH   1   7
ATOM      7  C   UNL     1      -6.334  -1.646   6.269  1.00  0.00     0.018 A 
ATOM      8  C   UNL     1      -7.259  -2.624   5.902  1.00  0.00     0.133 A 
ATOM      9  C   UNL     1      -8.381  -2.856   6.697  1.00  0.00     0.079 A 
ATOM     10  C   UNL     1      -6.532  -0.901   7.432  1.00  0.00     0.015 A 
ATOM     11  C   UNL     1      -8.579  -2.111   7.859  1.00  0.00     0.126 A 
ATOM     12  C   UNL     1      -7.654  -1.134   8.226  1.00  0.00     0.040 A 
ATOM     13  F   UNL     1      -7.085  -3.347   4.786  1.00  0.00    -0.206 F 
ATOM     14  F   UNL     1      -9.656  -2.333   8.623  1.00  0.00    -0.207 F 
ENDBRANCH   1   7
BRANCH   4  15
ATOM     15  C   UNL     1      -2.542  -3.371   3.652  1.00  0.00     0.339 C 
ATOM     16  O   UNL     1      -1.325  -3.526   3.775  1.00  0.00    -0.246 OA
BRANCH  15  17
ATOM     17  O   UNL     1      -3.328  -4.276   3.007  1.00  0.00    -0.478 OA
ATOM     18  H   UNL     1      -2.987  -5.189   3.103  1.00  0.00     0.297 HD
ENDBRANCH  15  17
ENDBRANCH   4  15
BRANCH   5  19
ATOM     19  O   UNL     1      -1.826  -0.677   3.092  1.00  0.00    -0.507 OA
ATOM     20  H   UNL     1      -1.521  -1.511   2.693  1.00  0.00     0.293 HD
ENDBRANCH   5  19
TORSDOF 4
ENDMDL
MODEL 4
REMARK VINA RESULT:    -5.510      1.692      2.999
REMARK INTER + INTRA:          -7.122
REMARK INTER:                  -6.585
REMARK INTRA:                  -0.537
REMARK UNBOUND:                -0.646
REMARK SMILES O=C(O)c1cc(-c2ccc(F)cc2F)ccc1O
REMARK SMILES IDX 6 1 5 2 15 3 4 4 17 5 16 6 7 7 13 8 12 9 8 10 10 11 9 12
REMARK SMILES IDX 14 13 11 14 2 15 1 16 3 17 18 19
REMARK H PARENT 3 18 18 20
ROOT
ATOM      1  C   UNL     1      -5.371  -1.441   5.612  1.00  0.00    -0.014 A 
ATOM      2  C   UNL     1      -4.668  -2.517   5.071  1.00  0.00     0.028 A 
ATOM      3  C   UNL     1      -4.936  -0.136   5.382  1.00  0.00     0.013 A 
ATOM      4  C   UNL     1      -3.529  -2.288   4.298  1.00  0.00     0.102 A 
ATOM      5  C   UNL     1      -3.093  -0.983   4.068  1.00  0.00     0.130 A 
ATOM      6  C   UNL     1      -3.797   0.093   4.609  1.00  0.00     0.048 A 
ENDROOT
BRANCH   1   7
ATOM      7  C   UNL     1      -6.551  -1.678   6.415  1.00  0.00     0.018 A 
ATOM      8  C   UNL     1      -6.578  -2.732   7.329  1.00  0.00     0.133 A 
ATOM      9  C   UNL     1      -7.718  -2.957   8.100  1.00  0.00     0.079 A 
ATOM     10  C   UNL     1      -7.664  -0.849   6.275  1.00  0.00     0.015 A 
ATOM     11  C   UNL     1      -8.831  -2.128   7.959  1.00  0.00     0.126 A 
ATOM     12  C   UNL     1      -8.803  -1.074   7.046  1.00  0.00     0.040 A 
ATOM     13  F   UNL     1      -5.518  -3.540   7.474  1.00  0.00    -0.206 F 
ATOM     14  F   UNL     1      -9.925  -2.343   8.699  1.00  0.00    -0.207 F 
ENDBRANCH   1   7
BRANCH   4  15
ATOM     15  C   UNL     1      -2.809  -3.425   3.741  1.00  0.00     0.339 C 
ATOM     16  O   UNL     1      -1.588  -3.592   3.794  1.00  0.00    -0.246 OA
BRANCH  15  17
ATOM     17  O   UNL     1      -3.638  -4.318   3.137  1.00  0.00    -0.478 OA
ATOM     18  H   UNL     1      -3.901  -4.023   2.240  1.00  0.00     0.297 HD
ENDBRANCH  15  17
ENDBRANCH   4  15
BRANCH   5  19
ATOM     19  O   UNL     1      -1.984  -0.738   3.315  1.00  0.00    -0.507 OA
ATOM     20  H   UNL     1      -1.524   0.041   3.672  1.00  0.00     0.293 HD
ENDBRANCH   5  19
TORSDOF 4
ENDMDL
MODEL 5
REMARK VINA RESULT:    -5.385      3.980      6.265
REMARK INTER + INTRA:          -6.975
REMARK INTER:                  -5.892
REMARK INTRA:                  -1.083
REMARK UNBOUND:                -0.646
REMARK SMILES O=C(O)c1cc(-c2ccc(F)cc2F)ccc1O
REMARK SMILES IDX 6 1 5 2 15 3 4 4 17 5 16 6 7 7 13 8 12 9 8 10 10 11 9 12
REMARK SMILES IDX 14 13 11 14 2 15 1 16 3 17 18 19
REMARK H PARENT 3 18 18 20
ROOT
ATOM      1  C   UNL     1      -7.211  -1.721   6.992  1.00  0.00    -0.014 A 
ATOM      2  C   UNL     1      -8.386  -0.972   6.939  1.00  0.00     0.028 A 
ATOM      3  C   UNL     1      -7.136  -2.842   7.819  1.00  0.00     0.013 A 
ATOM      4  C   UNL     1      -9.486  -1.343   7.713  1.00  0.00     0.102 A 
ATOM      5  C   UNL     1      -9.410  -2.463   8.540  1.00  0.00     0.130 A 
ATOM      6  C   UNL     1      -8.234  -3.213   8.593  1.00  0.00     0.048 A 
ENDROOT
BRANCH   1   7
ATOM      7  C   UNL     1      -6.070  -1.336   6.191  1.00  0.00     0.018 A 
ATOM      8  C   UNL     1      -5.149  -0.410   6.682  1.00  0.00     0.133 A 
ATOM      9  C   UNL     1      -4.049  -0.042   5.906  1.00  0.00     0.079 A 
ATOM     10  C   UNL     1      -5.891  -1.893   4.925  1.00  0.00     0.015 A 
ATOM     11  C   UNL     1      -3.871  -0.598   4.640  1.00  0.00     0.126 A 
ATOM     12  C   UNL     1      -4.792  -1.525   4.150  1.00  0.00     0.040 A 
ATOM     13  F   UNL     1      -5.307   0.137   7.896  1.00  0.00    -0.206 F 
ATOM     14  F   UNL     1      -2.816  -0.245   3.895  1.00  0.00    -0.207 F 
ENDBRANCH   1   7
BRANCH   4  15
ATOM     15  C   UNL     1     -10.704  -0.547   7.644  1.00  0.00     0.339 C 
ATOM     16  O   UNL     1     -11.754  -0.796   8.240  1.00  0.00    -0.246 OA
BRANCH  15  17
ATOM     17  O   UNL     1     -10.569   0.536   6.831  1.00  0.00    -0.478 OA
ATOM     18  H   UNL     1     -10.223   1.315   7.316  1.00  0.00     0.297 HD
ENDBRANCH  15  17
ENDBRANCH   4  15
BRANCH   5  19
ATOM     19  O   UNL     1     -10.474  -2.843   9.304  1.00  0.00    -0.507 OA
ATOM     20  H   UNL     1     -10.966  -2.050   9.578  1.00  0.00     0.293 HD
ENDBRANCH   5  19
TORSDOF 4
ENDMDL
MODEL 6
REMARK VINA RESULT:    -5.361      4.131      6.450
REMARK INTER + INTRA:          -6.947
REMARK INTER:                  -5.877
REMARK INTRA:                  -1.070
REMARK UNBOUND:                -0.646
REMARK SMILES O=C(O)c1cc(-c2ccc(F)cc2F)ccc1O
REMARK SMILES IDX 6 1 5 2 15 3 4 4 17 5 16 6 7 7 13 8 12 9 8 10 10 11 9 12
REMARK SMILES IDX 14 13 11 14 2 15 1 16 3 17 18 19
REMARK H PARENT 3 18 18 20
ROOT
ATOM      1  C   UNL     1      -7.261  -1.958   6.945  1.00  0.00    -0.014 A 
ATOM      2  C   UNL     1      -8.382  -1.134   6.863  1.00  0.00     0.028 A 
ATOM      3  C   UNL     1      -7.250  -3.036   7.830  1.00  0.00     0.013 A 
ATOM      4  C   UNL     1      -9.495  -1.387   7.666  1.00  0.00     0.102 A 
ATOM      5  C   UNL     1      -9.485  -2.465   8.551  1.00  0.00     0.130 A 
ATOM      6  C   UNL     1      -8.362  -3.290   8.633  1.00  0.00     0.048 A 
ENDROOT
BRANCH   1   7
ATOM      7  C   UNL     1      -6.106  -1.695   6.113  1.00  0.00     0.018 A 
ATOM      8  C   UNL     1      -5.934  -2.387   4.914  1.00  0.00     0.133 A 
ATOM      9  C   UNL     1      -4.820  -2.130   4.115  1.00  0.00     0.079 A 
ATOM     10  C   UNL     1      -5.164  -0.747   6.513  1.00  0.00     0.015 A 
ATOM     11  C   UNL     1      -3.878  -1.183   4.515  1.00  0.00     0.126 A 
ATOM     12  C   UNL     1      -4.050  -0.491   5.714  1.00  0.00     0.040 A 
ATOM     13  F   UNL     1      -6.829  -3.303   4.516  1.00  0.00    -0.206 F 
ATOM     14  F   UNL     1      -2.807  -0.936   3.749  1.00  0.00    -0.207 F 
ENDBRANCH   1   7
BRANCH   4  15
ATOM     15  C   UNL     1     -10.656  -0.515   7.565  1.00  0.00     0.339 C 
ATOM     16  O   UNL     1     -11.753  -0.723   8.090  1.00  0.00    -0.246 OA
BRANCH  15  17
ATOM     17  O   UNL     1     -10.410   0.592   6.811  1.00  0.00    -0.478 OA
ATOM     18  H   UNL     1      -9.501   0.587   6.443  1.00  0.00     0.297 HD
ENDBRANCH  15  17
ENDBRANCH   4  15
BRANCH   5  19
ATOM     19  O   UNL     1     -10.561  -2.730   9.344  1.00  0.00    -0.507 OA
ATOM     20  H   UNL     1     -10.415  -3.574   9.806  1.00  0.00     0.293 HD
ENDBRANCH   5  19
TORSDOF 4
ENDMDL
MODEL 7
REMARK VINA RESULT:    -5.331      4.316      6.658
REMARK INTER + INTRA:          -6.912
REMARK INTER:                  -5.841
REMARK INTRA:                  -1.072
REMARK UNBOUND:                -0.646
REMARK SMILES O=C(O)c1cc(-c2ccc(F)cc2F)ccc1O
REMARK SMILES IDX 6 1 5 2 15 3 4 4 17 5 16 6 7 7 13 8 12 9 8 10 10 11 9 12
REMARK SMILES IDX 14 13 11 14 2 15 1 16 3 17 18 19
REMARK H PARENT 3 18 18 20
ROOT
ATOM      1  C   UNL     1      -7.229  -1.772   7.003  1.00  0.00    -0.014 A 
ATOM      2  C   UNL     1      -7.192  -2.909   7.810  1.00  0.00     0.028 A 
ATOM      3  C   UNL     1      -8.374  -0.976   6.973  1.00  0.00     0.013 A 
ATOM      4  C   UNL     1      -8.299  -3.250   8.587  1.00  0.00     0.102 A 
ATOM      5  C   UNL     1      -9.444  -2.454   8.557  1.00  0.00     0.130 A 
ATOM      6  C   UNL     1      -9.481  -1.316   7.749  1.00  0.00     0.048 A 
ENDROOT
BRANCH   1   7
ATOM      7  C   UNL     1      -6.081  -1.419   6.195  1.00  0.00     0.018 A 
ATOM      8  C   UNL     1      -5.156  -0.485   6.664  1.00  0.00     0.133 A 
ATOM      9  C   UNL     1      -4.052  -0.147   5.882  1.00  0.00     0.079 A 
ATOM     10  C   UNL     1      -5.901  -2.014   4.948  1.00  0.00     0.015 A 
ATOM     11  C   UNL     1      -3.871  -0.742   4.634  1.00  0.00     0.126 A 
ATOM     12  C   UNL     1      -4.796  -1.676   4.167  1.00  0.00     0.040 A 
ATOM     13  F   UNL     1      -5.317   0.099   7.860  1.00  0.00    -0.206 F 
ATOM     14  F   UNL     1      -2.811  -0.418   3.883  1.00  0.00    -0.207 F 
ENDBRANCH   1   7
BRANCH   4  15
ATOM     15  C   UNL     1      -8.239  -4.441   9.424  1.00  0.00     0.339 C 
ATOM     16  O   UNL     1      -9.205  -4.976   9.972  1.00  0.00    -0.246 OA
BRANCH  15  17
ATOM     17  O   UNL     1      -6.974  -4.925   9.546  1.00  0.00    -0.478 OA
ATOM     18  H   UNL     1      -6.773  -5.192  10.468  1.00  0.00     0.297 HD
ENDBRANCH  15  17
ENDBRANCH   4  15
BRANCH   5  19
ATOM     19  O   UNL     1     -10.536  -2.769   9.309  1.00  0.00    -0.507 OA
ATOM     20  H   UNL     1     -11.293  -2.238   9.007  1.00  0.00     0.293 HD
ENDBRANCH   5  19
TORSDOF 4
ENDMDL
MODEL 8
REMARK VINA RESULT:    -5.271      4.565      6.883
REMARK INTER + INTRA:          -6.841
REMARK INTER:                  -5.764
REMARK INTRA:                  -1.077
REMARK UNBOUND:                -0.646
REMARK SMILES O=C(O)c1cc(-c2ccc(F)cc2F)ccc1O
REMARK SMILES IDX 6 1 5 2 15 3 4 4 17 5 16 6 7 7 13 8 12 9 8 10 10 11 9 12
REMARK SMILES IDX 14 13 11 14 2 15 1 16 3 17 18 19
REMARK H PARENT 3 18 18 20
ROOT
ATOM      1  C   UNL     1      -7.228  -1.981   6.963  1.00  0.00    -0.014 A 
ATOM      2  C   UNL     1      -7.168  -3.051   7.854  1.00  0.00     0.028 A 
ATOM      3  C   UNL     1      -8.380  -1.199   6.888  1.00  0.00     0.013 A 
ATOM      4  C   UNL     1      -8.261  -3.341   8.671  1.00  0.00     0.102 A 
ATOM      5  C   UNL     1      -9.413  -2.559   8.597  1.00  0.00     0.130 A 
ATOM      6  C   UNL     1      -9.473  -1.487   7.705  1.00  0.00     0.048 A 
ENDROOT
BRANCH   1   7
ATOM      7  C   UNL     1      -6.095  -1.681   6.113  1.00  0.00     0.018 A 
ATOM      8  C   UNL     1      -5.929  -2.355   4.903  1.00  0.00     0.133 A 
ATOM      9  C   UNL     1      -4.835  -2.063   4.088  1.00  0.00     0.079 A 
ATOM     10  C   UNL     1      -5.169  -0.714   6.507  1.00  0.00     0.015 A 
ATOM     11  C   UNL     1      -3.909  -1.098   4.481  1.00  0.00     0.126 A 
ATOM     12  C   UNL     1      -4.077  -0.423   5.691  1.00  0.00     0.040 A 
ATOM     13  F   UNL     1      -6.808  -3.289   4.512  1.00  0.00    -0.206 F 
ATOM     14  F   UNL     1      -2.859  -0.817   3.699  1.00  0.00    -0.207 F 
ENDBRANCH   1   7
BRANCH   4  15
ATOM     15  C   UNL     1      -8.178  -4.463   9.596  1.00  0.00     0.339 C 
ATOM     16  O   UNL     1      -7.176  -4.786  10.238  1.00  0.00    -0.246 OA
BRANCH  15  17
ATOM     17  O   UNL     1      -9.353  -5.144   9.690  1.00  0.00    -0.478 OA
ATOM     18  H   UNL     1     -10.037  -4.627  10.164  1.00  0.00     0.297 HD
ENDBRANCH  15  17
ENDBRANCH   4  15
BRANCH   5  19
ATOM     19  O   UNL     1     -10.492  -2.824   9.387  1.00  0.00    -0.507 OA
ATOM     20  H   UNL     1     -10.295  -3.597   9.944  1.00  0.00     0.293 HD
ENDBRANCH   5  19
TORSDOF 4
ENDMDL
MODEL 9
REMARK VINA RESULT:    -4.417      1.691      2.200
REMARK INTER + INTRA:          -5.837
REMARK INTER:                  -4.831
REMARK INTRA:                  -1.006
REMARK UNBOUND:                -0.646
REMARK SMILES O=C(O)c1cc(-c2ccc(F)cc2F)ccc1O
REMARK SMILES IDX 6 1 5 2 15 3 4 4 17 5 16 6 7 7 13 8 12 9 8 10 10 11 9 12
REMARK SMILES IDX 14 13 11 14 2 15 1 16 3 17 18 19
REMARK H PARENT 3 18 18 20
ROOT
ATOM      1  C   UNL     1      -6.576  -1.998   6.247  1.00  0.00    -0.014 A 
ATOM      2  C   UNL     1      -5.862  -0.835   6.532  1.00  0.00     0.028 A 
ATOM      3  C   UNL     1      -6.401  -2.642   5.022  1.00  0.00     0.013 A 
ATOM      4  C   UNL     1      -4.973  -0.314   5.591  1.00  0.00     0.102 A 
ATOM      5  C   UNL     1      -4.798  -0.957   4.366  1.00  0.00     0.130 A 
ATOM      6  C   UNL     1      -5.513  -2.122   4.082  1.00  0.00     0.048 A 
ENDROOT
BRANCH   1   7
ATOM      7  C   UNL     1      -7.500  -2.538   7.222  1.00  0.00     0.018 A 
ATOM      8  C   UNL     1      -8.719  -1.902   7.459  1.00  0.00     0.133 A 
ATOM      9  C   UNL     1      -9.606  -2.426   8.400  1.00  0.00     0.079 A 
ATOM     10  C   UNL     1      -7.169  -3.697   7.924  1.00  0.00     0.015 A 
ATOM     11  C   UNL     1      -9.275  -3.584   9.102  1.00  0.00     0.126 A 
ATOM     12  C   UNL     1      -8.057  -4.220   8.863  1.00  0.00     0.040 A 
ATOM     13  F   UNL     1      -9.051  -0.786   6.795  1.00  0.00    -0.206 F 
ATOM     14  F   UNL     1     -10.126  -4.088  10.005  1.00  0.00    -0.207 F 
ENDBRANCH   1   7
BRANCH   4  15
ATOM     15  C   UNL     1      -4.237   0.902   5.908  1.00  0.00     0.339 C 
ATOM     16  O   UNL     1      -3.680   1.634   5.086  1.00  0.00    -0.246 OA
BRANCH  15  17
ATOM     17  O   UNL     1      -4.222   1.166   7.243  1.00  0.00    -0.478 OA
ATOM     18  H   UNL     1      -3.496   0.691   7.700  1.00  0.00     0.297 HD
ENDBRANCH  15  17
ENDBRANCH   4  15
BRANCH   5  19
ATOM     19  O   UNL     1      -3.934  -0.465   3.434  1.00  0.00    -0.507 OA
ATOM     20  H   UNL     1      -3.895  -1.080   2.681  1.00  0.00     0.293 HD
ENDBRANCH   5  19
TORSDOF 4
ENDMDL
