MODEL 1
REMARK VINA RESULT:    -5.310      0.000      0.000
REMARK INTER + INTRA:          -7.283
REMARK INTER:                  -6.551
REMARK INTRA:                  -0.731
REMARK UNBOUND:                -0.731
REMARK SMILES Cc1ccc(C(=O)c2cc(O)c(O)c([N+](=O)[O-])c2)cc1
REMARK SMILES IDX 8 1 18 2 9 3 14 4 10 5 12 6 6 7 7 8 5 9 4 10 19 11 3 12
REMARK SMILES IDX 20 13 2 14 1 15 15 16 17 17 16 18 11 19 13 21
REMARK H PARENT 11 20 13 22
ROOT
ATOM      1  C   UNL     1      -7.549   1.511  -4.009  1.00  0.00     0.033 A 
ATOM      2  C   UNL     1      -7.211   2.582  -3.214  1.00  0.00     0.102 A 
ATOM      3  C   UNL     1      -6.657   0.523  -4.350  1.00  0.00     0.063 A 
ATOM      4  C   UNL     1      -5.905   2.667  -2.732  1.00  0.00     0.315 A 
ATOM      5  C   UNL     1      -5.350   0.609  -3.869  1.00  0.00     0.165 A 
ATOM      6  C   UNL     1      -4.974   1.682  -3.059  1.00  0.00     0.237 A 
ENDROOT
BRANCH   1   7
ATOM      7  C   UNL     1      -8.948   1.419  -4.525  1.00  0.00     0.193 C 
ATOM      8  O   UNL     1      -9.434   0.285  -4.654  1.00  0.00    -0.289 OA
BRANCH   7   9
ATOM      9  C   UNL     1      -9.731   2.595  -4.870  1.00  0.00     0.023 A 
ATOM     10  C   UNL     1      -9.817   3.011  -6.199  1.00  0.00     0.012 A 
ATOM     11  C   UNL     1     -10.397   3.307  -3.873  1.00  0.00     0.012 A 
ATOM     12  C   UNL     1     -10.568   4.138  -6.530  1.00  0.00     0.004 A 
ATOM     13  C   UNL     1     -11.149   4.435  -4.203  1.00  0.00     0.004 A 
ATOM     14  C   UNL     1     -11.234   4.851  -5.532  1.00  0.00    -0.051 A 
ATOM     15  C   UNL     1     -12.036   6.057  -5.886  1.00  0.00     0.044 C 
ENDBRANCH   7   9
ENDBRANCH   1   7
BRANCH   4  16
ATOM     16  N   UNL     1      -5.540   3.768  -1.909  1.00  0.00     0.066 N 
ATOM     17  O   UNL     1      -6.412   4.290  -1.173  1.00  0.00    -0.258 OA
ATOM     18  O   UNL     1      -4.358   4.183  -1.941  1.00  0.00    -0.258 OA
ENDBRANCH   4  16
BRANCH   5  19
ATOM     19  O   UNL     1      -4.452  -0.362  -4.197  1.00  0.00    -0.504 OA
ATOM     20  H   UNL     1      -4.501  -1.083  -3.548  1.00  0.00     0.293 HD
ENDBRANCH   5  19
BRANCH   6  21
ATOM     21  O   UNL     1      -3.693   1.754  -2.594  1.00  0.00    -0.500 OA
ATOM     22  H   UNL     1      -3.312   0.864  -2.547  1.00  0.00     0.294 HD
ENDBRANCH   6  21
TORSDOF 5
ENDMDL
MODEL 2
REMARK VINA RESULT:    -5.224      2.022      3.551
REMARK INTER + INTRA:          -7.177
REMARK INTER:                  -6.447
REMARK INTRA:                  -0.730
REMARK UNBOUND:                -0.731
REMARK SMILES Cc1ccc(C(=O)c2cc(O)c(O)c([N+](=O)[O-])c2)cc1
REMARK SMILES IDX 8 1 18 2 9 3 14 4 10 5 12 6 6 7 7 8 5 9 4 10 19 11 3 12
REMARK SMILES IDX 20 13 2 14 1 15 15 16 17 17 16 18 11 19 13 21
REMARK H PARENT 11 20 13 22
ROOT
ATOM      1  C   UNL     1      -7.135   3.299  -4.173  1.00  0.00     0.033 A 
ATOM      2  C   UNL     1      -6.708   2.112  -4.720  1.00  0.00     0.102 A 
ATOM      3  C   UNL     1      -6.472   3.929  -3.147  1.00  0.00     0.063 A 
ATOM      4  C   UNL     1      -5.551   1.521  -4.212  1.00  0.00     0.315 A 
ATOM      5  C   UNL     1      -5.315   3.338  -2.638  1.00  0.00     0.165 A 
ATOM      6  C   UNL     1      -4.854   2.134  -3.172  1.00  0.00     0.237 A 
ENDROOT
BRANCH   1   7
ATOM      7  C   UNL     1      -8.374   3.932  -4.717  1.00  0.00     0.193 C 
ATOM      8  O   UNL     1      -8.394   5.170  -4.795  1.00  0.00    -0.289 OA
BRANCH   7   9
ATOM      9  C   UNL     1      -9.525   3.152  -5.144  1.00  0.00     0.023 A 
ATOM     10  C   UNL     1     -10.607   2.976  -4.282  1.00  0.00     0.012 A 
ATOM     11  C   UNL     1      -9.547   2.581  -6.416  1.00  0.00     0.012 A 
ATOM     12  C   UNL     1     -11.711   2.228  -4.692  1.00  0.00     0.004 A 
ATOM     13  C   UNL     1     -10.651   1.833  -6.827  1.00  0.00     0.004 A 
ATOM     14  C   UNL     1     -11.733   1.656  -5.965  1.00  0.00    -0.051 A 
ATOM     15  C   UNL     1     -12.912   0.856  -6.402  1.00  0.00     0.044 C 
ENDBRANCH   7   9
ENDBRANCH   1   7
BRANCH   4  16
ATOM     16  N   UNL     1      -5.097   0.294  -4.768  1.00  0.00     0.066 N 
ATOM     17  O   UNL     1      -5.181   0.122  -6.009  1.00  0.00    -0.258 OA
ATOM     18  O   UNL     1      -4.626  -0.580  -4.004  1.00  0.00    -0.258 OA
ENDBRANCH   4  16
BRANCH   5  19
ATOM     19  O   UNL     1      -4.644   3.949  -1.621  1.00  0.00    -0.504 OA
ATOM     20  H   UNL     1      -3.695   3.974  -1.827  1.00  0.00     0.293 HD
ENDBRANCH   5  19
BRANCH   6  21
ATOM     21  O   UNL     1      -3.721   1.566  -2.666  1.00  0.00    -0.500 OA
ATOM     22  H   UNL     1      -3.671   0.637  -2.941  1.00  0.00     0.294 HD
ENDBRANCH   6  21
TORSDOF 5
ENDMDL
MODEL 3
REMARK VINA RESULT:    -4.560      1.642      3.114
REMARK INTER + INTRA:          -6.358
REMARK INTER:                  -5.703
REMARK INTRA:                  -0.655
REMARK UNBOUND:                -0.731
REMARK SMILES Cc1ccc(C(=O)c2cc(O)c(O)c([N+](=O)[O-])c2)cc1
REMARK SMILES IDX 8 1 18 2 9 3 14 4 10 5 12 6 6 7 7 8 5 9 4 10 19 11 3 12
REMARK SMILES IDX 20 13 2 14 1 15 15 16 17 17 16 18 11 19 13 21
REMARK H PARENT 11 20 13 22
ROOT
ATOM      1  C   UNL     1      -7.258   2.327  -2.659  1.00  0.00     0.033 A 
ATOM      2  C   UNL     1      -6.825   1.226  -3.362  1.00  0.00     0.102 A 
ATOM      3  C   UNL     1      -6.399   3.268  -2.144  1.00  0.00     0.063 A 
ATOM      4  C   UNL     1      -5.455   1.059  -3.562  1.00  0.00     0.315 A 
ATOM      5  C   UNL     1      -5.028   3.100  -2.343  1.00  0.00     0.165 A 
ATOM      6  C   UNL     1      -4.556   1.995  -3.053  1.00  0.00     0.237 A 
ENDROOT
BRANCH   1   7
ATOM      7  C   UNL     1      -8.725   2.506  -2.445  1.00  0.00     0.193 C 
ATOM      8  O   UNL     1      -9.191   2.137  -1.356  1.00  0.00    -0.289 OA
BRANCH   7   9
ATOM      9  C   UNL     1      -9.595   3.088  -3.455  1.00  0.00     0.023 A 
ATOM     10  C   UNL     1     -10.671   3.889  -3.071  1.00  0.00     0.012 A 
ATOM     11  C   UNL     1      -9.355   2.845  -4.807  1.00  0.00     0.012 A 
ATOM     12  C   UNL     1     -11.505   4.447  -4.040  1.00  0.00     0.004 A 
ATOM     13  C   UNL     1     -10.189   3.403  -5.776  1.00  0.00     0.004 A 
ATOM     14  C   UNL     1     -11.264   4.204  -5.393  1.00  0.00    -0.051 A 
ATOM     15  C   UNL     1     -12.157   4.800  -6.427  1.00  0.00     0.044 C 
ENDBRANCH   7   9
ENDBRANCH   1   7
BRANCH   4  16
ATOM     16  N   UNL     1      -4.993  -0.074  -4.287  1.00  0.00     0.066 N 
ATOM     17  O   UNL     1      -5.408  -0.255  -5.457  1.00  0.00    -0.258 OA
ATOM     18  O   UNL     1      -4.184  -0.857  -3.736  1.00  0.00    -0.258 OA
ENDBRANCH   4  16
BRANCH   5  19
ATOM     19  O   UNL     1      -4.161   4.024  -1.840  1.00  0.00    -0.504 OA
ATOM     20  H   UNL     1      -4.076   4.763  -2.465  1.00  0.00     0.293 HD
ENDBRANCH   5  19
BRANCH   6  21
ATOM     21  O   UNL     1      -3.213   1.843  -3.242  1.00  0.00    -0.500 OA
ATOM     22  H   UNL     1      -2.761   2.682  -3.062  1.00  0.00     0.294 HD
ENDBRANCH   6  21
TORSDOF 5
ENDMDL
MODEL 4
REMARK VINA RESULT:    -4.541      3.710      6.813
REMARK INTER + INTRA:          -6.335
REMARK INTER:                  -5.370
REMARK INTRA:                  -0.964
REMARK UNBOUND:                -0.731
REMARK SMILES Cc1ccc(C(=O)c2cc(O)c(O)c([N+](=O)[O-])c2)cc1
REMARK SMILES IDX 8 1 18 2 9 3 14 4 10 5 12 6 6 7 7 8 5 9 4 10 19 11 3 12
REMARK SMILES IDX 20 13 2 14 1 15 15 16 17 17 16 18 11 19 13 21
REMARK H PARENT 11 20 13 22
ROOT
ATOM      1  C   UNL     1     -10.576   3.124  -4.790  1.00  0.00     0.033 A 
ATOM      2  C   UNL     1     -11.028   4.370  -5.157  1.00  0.00     0.102 A 
ATOM      3  C   UNL     1     -11.218   1.962  -5.146  1.00  0.00     0.063 A 
ATOM      4  C   UNL     1     -12.189   4.458  -5.925  1.00  0.00     0.315 A 
ATOM      5  C   UNL     1     -12.380   2.050  -5.913  1.00  0.00     0.165 A 
ATOM      6  C   UNL     1     -12.865   3.299  -6.303  1.00  0.00     0.237 A 
ENDROOT
BRANCH   1   7
ATOM      7  C   UNL     1      -9.332   3.029  -3.967  1.00  0.00     0.193 C 
ATOM      8  O   UNL     1      -9.284   3.704  -2.928  1.00  0.00    -0.289 OA
BRANCH   7   9
ATOM      9  C   UNL     1      -8.209   2.186  -4.346  1.00  0.00     0.023 A 
ATOM     10  C   UNL     1      -7.592   2.361  -5.585  1.00  0.00     0.012 A 
ATOM     11  C   UNL     1      -7.749   1.203  -3.471  1.00  0.00     0.012 A 
ATOM     12  C   UNL     1      -6.515   1.553  -5.947  1.00  0.00     0.004 A 
ATOM     13  C   UNL     1      -6.671   0.394  -3.833  1.00  0.00     0.004 A 
ATOM     14  C   UNL     1      -6.054   0.569  -5.072  1.00  0.00    -0.051 A 
ATOM     15  C   UNL     1      -4.903  -0.296  -5.461  1.00  0.00     0.044 C 
ENDBRANCH   7   9
ENDBRANCH   1   7
BRANCH   4  16
ATOM     16  N   UNL     1     -12.669   5.740  -6.312  1.00  0.00     0.066 N 
ATOM     17  O   UNL     1     -13.894   5.885  -6.540  1.00  0.00    -0.258 OA
ATOM     18  O   UNL     1     -11.854   6.686  -6.414  1.00  0.00    -0.258 OA
ENDBRANCH   4  16
BRANCH   5  19
ATOM     19  O   UNL     1     -13.030   0.909  -6.276  1.00  0.00    -0.504 OA
ATOM     20  H   UNL     1     -13.652   0.652  -5.575  1.00  0.00     0.293 HD
ENDBRANCH   5  19
BRANCH   6  21
ATOM     21  O   UNL     1     -14.002   3.372  -7.054  1.00  0.00    -0.500 OA
ATOM     22  H   UNL     1     -14.779   3.312  -6.477  1.00  0.00     0.294 HD
ENDBRANCH   6  21
TORSDOF 5
ENDMDL
MODEL 5
REMARK VINA RESULT:    -4.511      3.743      7.064
REMARK INTER + INTRA:          -6.297
REMARK INTER:                  -5.380
REMARK INTRA:                  -0.917
REMARK UNBOUND:                -0.731
REMARK SMILES Cc1ccc(C(=O)c2cc(O)c(O)c([N+](=O)[O-])c2)cc1
REMARK SMILES IDX 8 1 18 2 9 3 14 4 10 5 12 6 6 7 7 8 5 9 4 10 19 11 3 12
REMARK SMILES IDX 20 13 2 14 1 15 15 16 17 17 16 18 11 19 13 21
REMARK H PARENT 11 20 13 22
ROOT
ATOM      1  C   UNL     1     -10.191   2.926  -5.831  1.00  0.00     0.033 A 
ATOM      2  C   UNL     1     -11.162   1.975  -6.043  1.00  0.00     0.102 A 
ATOM      3  C   UNL     1     -10.455   4.275  -5.833  1.00  0.00     0.063 A 
ATOM      4  C   UNL     1     -12.472   2.398  -6.268  1.00  0.00     0.315 A 
ATOM      5  C   UNL     1     -11.765   4.699  -6.059  1.00  0.00     0.165 A 
ATOM      6  C   UNL     1     -12.774   3.759  -6.276  1.00  0.00     0.237 A 
ENDROOT
BRANCH   1   7
ATOM      7  C   UNL     1      -8.788   2.474  -5.591  1.00  0.00     0.193 C 
ATOM      8  O   UNL     1      -8.290   1.697  -6.420  1.00  0.00    -0.289 OA
BRANCH   7   9
ATOM      9  C   UNL     1      -8.014   2.911  -4.440  1.00  0.00     0.023 A 
ATOM     10  C   UNL     1      -8.512   2.718  -3.151  1.00  0.00     0.012 A 
ATOM     11  C   UNL     1      -6.774   3.522  -4.624  1.00  0.00     0.012 A 
ATOM     12  C   UNL     1      -7.769   3.137  -2.047  1.00  0.00     0.004 A 
ATOM     13  C   UNL     1      -6.031   3.942  -3.520  1.00  0.00     0.004 A 
ATOM     14  C   UNL     1      -6.528   3.749  -2.231  1.00  0.00    -0.051 A 
ATOM     15  C   UNL     1      -5.736   4.198  -1.051  1.00  0.00     0.044 C 
ENDBRANCH   7   9
ENDBRANCH   1   7
BRANCH   4  16
ATOM     16  N   UNL     1     -13.486   1.426  -6.488  1.00  0.00     0.066 N 
ATOM     17  O   UNL     1     -13.298   0.252  -6.087  1.00  0.00    -0.258 OA
ATOM     18  O   UNL     1     -14.539   1.771  -7.074  1.00  0.00    -0.258 OA
ENDBRANCH   4  16
BRANCH   5  19
ATOM     19  O   UNL     1     -12.045   6.032  -6.063  1.00  0.00    -0.504 OA
ATOM     20  H   UNL     1     -11.254   6.530  -6.326  1.00  0.00     0.293 HD
ENDBRANCH   5  19
BRANCH   6  21
ATOM     21  O   UNL     1     -14.052   4.186  -6.495  1.00  0.00    -0.500 OA
ATOM     22  H   UNL     1     -14.359   3.866  -7.357  1.00  0.00     0.294 HD
ENDBRANCH   6  21
TORSDOF 5
ENDMDL
MODEL 6
REMARK VINA RESULT:    -4.511      3.490      7.037
REMARK INTER + INTRA:          -6.297
REMARK INTER:                  -5.387
REMARK INTRA:                  -0.910
REMARK UNBOUND:                -0.731
REMARK SMILES Cc1ccc(C(=O)c2cc(O)c(O)c([N+](=O)[O-])c2)cc1
REMARK SMILES IDX 8 1 18 2 9 3 14 4 10 5 12 6 6 7 7 8 5 9 4 10 19 11 3 12
REMARK SMILES IDX 20 13 2 14 1 15 15 16 17 17 16 18 11 19 13 21
REMARK H PARENT 11 20 13 22
ROOT
ATOM      1  C   UNL     1     -10.380   3.397  -4.432  1.00  0.00     0.033 A 
ATOM      2  C   UNL     1     -11.116   2.423  -5.065  1.00  0.00     0.102 A 
ATOM      3  C   UNL     1     -10.652   4.738  -4.557  1.00  0.00     0.063 A 
ATOM      4  C   UNL     1     -12.187   2.814  -5.869  1.00  0.00     0.315 A 
ATOM      5  C   UNL     1     -11.722   5.130  -5.362  1.00  0.00     0.165 A 
ATOM      6  C   UNL     1     -12.491   4.167  -6.017  1.00  0.00     0.237 A 
ENDROOT
BRANCH   1   7
ATOM      7  C   UNL     1      -9.233   2.978  -3.571  1.00  0.00     0.193 C 
ATOM      8  O   UNL     1      -9.237   3.362  -2.391  1.00  0.00    -0.289 OA
BRANCH   7   9
ATOM      9  C   UNL     1      -8.143   2.156  -4.070  1.00  0.00     0.023 A 
ATOM     10  C   UNL     1      -7.596   2.410  -5.328  1.00  0.00     0.012 A 
ATOM     11  C   UNL     1      -7.643   1.112  -3.291  1.00  0.00     0.012 A 
ATOM     12  C   UNL     1      -6.551   1.621  -5.806  1.00  0.00     0.004 A 
ATOM     13  C   UNL     1      -6.597   0.322  -3.769  1.00  0.00     0.004 A 
ATOM     14  C   UNL     1      -6.050   0.577  -5.027  1.00  0.00    -0.051 A 
ATOM     15  C   UNL     1      -4.934  -0.268  -5.539  1.00  0.00     0.044 C 
ENDBRANCH   7   9
ENDBRANCH   1   7
BRANCH   4  16
ATOM     16  N   UNL     1     -12.958   1.819  -6.530  1.00  0.00     0.066 N 
ATOM     17  O   UNL     1     -14.173   2.042  -6.753  1.00  0.00    -0.258 OA
ATOM     18  O   UNL     1     -12.402   0.749  -6.871  1.00  0.00    -0.258 OA
ENDBRANCH   4  16
BRANCH   5  19
ATOM     19  O   UNL     1     -12.007   6.455  -5.497  1.00  0.00    -0.504 OA
ATOM     20  H   UNL     1     -12.745   6.568  -6.119  1.00  0.00     0.293 HD
ENDBRANCH   5  19
BRANCH   6  21
ATOM     21  O   UNL     1     -13.536   4.562  -6.801  1.00  0.00    -0.500 OA
ATOM     22  H   UNL     1     -14.176   3.838  -6.880  1.00  0.00     0.294 HD
ENDBRANCH   6  21
TORSDOF 5
ENDMDL
MODEL 7
REMARK VINA RESULT:    -4.488      3.594      6.490
REMARK INTER + INTRA:          -6.269
REMARK INTER:                  -5.358
REMARK INTRA:                  -0.911
REMARK UNBOUND:                -0.731
REMARK SMILES Cc1ccc(C(=O)c2cc(O)c(O)c([N+](=O)[O-])c2)cc1
REMARK SMILES IDX 8 1 18 2 9 3 14 4 10 5 12 6 6 7 7 8 5 9 4 10 19 11 3 12
REMARK SMILES IDX 20 13 2 14 1 15 15 16 17 17 16 18 11 19 13 21
REMARK H PARENT 11 20 13 22
ROOT
ATOM      1  C   UNL     1      -9.950   2.604  -5.984  1.00  0.00     0.033 A 
ATOM      2  C   UNL     1     -10.485   3.867  -5.875  1.00  0.00     0.102 A 
ATOM      3  C   UNL     1     -10.710   1.493  -6.265  1.00  0.00     0.063 A 
ATOM      4  C   UNL     1     -11.859   4.027  -6.060  1.00  0.00     0.315 A 
ATOM      5  C   UNL     1     -12.084   1.654  -6.449  1.00  0.00     0.165 A 
ATOM      6  C   UNL     1     -12.658   2.921  -6.347  1.00  0.00     0.237 A 
ENDROOT
BRANCH   1   7
ATOM      7  C   UNL     1      -8.480   2.432  -5.785  1.00  0.00     0.193 C 
ATOM      8  O   UNL     1      -7.843   1.884  -6.698  1.00  0.00    -0.289 OA
BRANCH   7   9
ATOM      9  C   UNL     1      -7.797   2.880  -4.582  1.00  0.00     0.023 A 
ATOM     10  C   UNL     1      -8.368   2.648  -3.330  1.00  0.00     0.012 A 
ATOM     11  C   UNL     1      -6.573   3.540  -4.679  1.00  0.00     0.012 A 
ATOM     12  C   UNL     1      -7.713   3.078  -2.176  1.00  0.00     0.004 A 
ATOM     13  C   UNL     1      -5.917   3.969  -3.524  1.00  0.00     0.004 A 
ATOM     14  C   UNL     1      -6.487   3.738  -2.272  1.00  0.00    -0.051 A 
ATOM     15  C   UNL     1      -5.789   4.198  -1.038  1.00  0.00     0.044 C 
ENDBRANCH   7   9
ENDBRANCH   1   7
BRANCH   4  16
ATOM     16  N   UNL     1     -12.426   5.327  -5.952  1.00  0.00     0.066 N 
ATOM     17  O   UNL     1     -13.440   5.604  -6.637  1.00  0.00    -0.258 OA
ATOM     18  O   UNL     1     -11.898   6.156  -5.175  1.00  0.00    -0.258 OA
ENDBRANCH   4  16
BRANCH   5  19
ATOM     19  O   UNL     1     -12.852   0.564  -6.729  1.00  0.00    -0.504 OA
ATOM     20  H   UNL     1     -13.369   0.320  -5.943  1.00  0.00     0.293 HD
ENDBRANCH   5  19
BRANCH   6  21
ATOM     21  O   UNL     1     -14.003   3.066  -6.530  1.00  0.00    -0.500 OA
ATOM     22  H   UNL     1     -14.449   2.226  -6.341  1.00  0.00     0.294 HD
ENDBRANCH   6  21
TORSDOF 5
ENDMDL
MODEL 8
REMARK VINA RESULT:    -4.471      2.364      4.035
REMARK INTER + INTRA:          -6.248
REMARK INTER:                  -5.245
REMARK INTRA:                  -1.003
REMARK UNBOUND:                -0.731
REMARK SMILES Cc1ccc(C(=O)c2cc(O)c(O)c([N+](=O)[O-])c2)cc1
REMARK SMILES IDX 8 1 18 2 9 3 14 4 10 5 12 6 6 7 7 8 5 9 4 10 19 11 3 12
REMARK SMILES IDX 20 13 2 14 1 15 15 16 17 17 16 18 11 19 13 21
REMARK H PARENT 11 20 13 22
ROOT
ATOM      1  C   UNL     1     -10.494   3.324  -4.311  1.00  0.00     0.033 A 
ATOM      2  C   UNL     1      -9.188   2.960  -4.541  1.00  0.00     0.102 A 
ATOM      3  C   UNL     1     -11.001   3.527  -3.049  1.00  0.00     0.063 A 
ATOM      4  C   UNL     1      -8.340   2.790  -3.447  1.00  0.00     0.315 A 
ATOM      5  C   UNL     1     -10.153   3.356  -1.954  1.00  0.00     0.165 A 
ATOM      6  C   UNL     1      -8.821   2.988  -2.154  1.00  0.00     0.237 A 
ENDROOT
BRANCH   1   7
ATOM      7  C   UNL     1     -11.403   3.507  -5.483  1.00  0.00     0.193 C 
ATOM      8  O   UNL     1     -11.799   2.483  -6.059  1.00  0.00    -0.289 OA
BRANCH   7   9
ATOM      9  C   UNL     1     -11.821   4.819  -5.948  1.00  0.00     0.023 A 
ATOM     10  C   UNL     1     -10.865   5.763  -6.324  1.00  0.00     0.012 A 
ATOM     11  C   UNL     1     -13.177   5.134  -6.020  1.00  0.00     0.012 A 
ATOM     12  C   UNL     1     -11.266   7.022  -6.770  1.00  0.00     0.004 A 
ATOM     13  C   UNL     1     -13.580   6.393  -6.468  1.00  0.00     0.004 A 
ATOM     14  C   UNL     1     -12.624   7.337  -6.843  1.00  0.00    -0.051 A 
ATOM     15  C   UNL     1     -13.052   8.683  -7.319  1.00  0.00     0.044 C 
ENDBRANCH   7   9
ENDBRANCH   1   7
BRANCH   4  16
ATOM     16  N   UNL     1      -6.987   2.414  -3.670  1.00  0.00     0.066 N 
ATOM     17  O   UNL     1      -6.474   1.532  -2.939  1.00  0.00    -0.258 OA
ATOM     18  O   UNL     1      -6.346   2.974  -4.590  1.00  0.00    -0.258 OA
ENDBRANCH   4  16
BRANCH   5  19
ATOM     19  O   UNL     1     -10.637   3.553  -0.696  1.00  0.00    -0.504 OA
ATOM     20  H   UNL     1      -9.898   3.693  -0.081  1.00  0.00     0.293 HD
ENDBRANCH   5  19
BRANCH   6  21
ATOM     21  O   UNL     1      -8.002   2.824  -1.075  1.00  0.00    -0.500 OA
ATOM     22  H   UNL     1      -8.316   3.374  -0.340  1.00  0.00     0.294 HD
ENDBRANCH   6  21
TORSDOF 5
ENDMDL
MODEL 9
REMARK VINA RESULT:    -4.419      1.265      2.904
REMARK INTER + INTRA:          -6.184
REMARK INTER:                  -5.529
REMARK INTRA:                  -0.655
REMARK UNBOUND:                -0.731
REMARK SMILES Cc1ccc(C(=O)c2cc(O)c(O)c([N+](=O)[O-])c2)cc1
REMARK SMILES IDX 8 1 18 2 9 3 14 4 10 5 12 6 6 7 7 8 5 9 4 10 19 11 3 12
REMARK SMILES IDX 20 13 2 14 1 15 15 16 17 17 16 18 11 19 13 21
REMARK H PARENT 11 20 13 22
ROOT
ATOM      1  C   UNL     1      -8.008   1.785  -4.155  1.00  0.00     0.033 A 
ATOM      2  C   UNL     1      -7.084   0.893  -4.648  1.00  0.00     0.102 A 
ATOM      3  C   UNL     1      -7.717   2.690  -3.162  1.00  0.00     0.063 A 
ATOM      4  C   UNL     1      -5.794   0.908  -4.117  1.00  0.00     0.315 A 
ATOM      5  C   UNL     1      -6.427   2.704  -2.630  1.00  0.00     0.165 A 
ATOM      6  C   UNL     1      -5.465   1.814  -3.108  1.00  0.00     0.237 A 
ENDROOT
BRANCH   1   7
ATOM      7  C   UNL     1      -9.390   1.769  -4.724  1.00  0.00     0.193 C 
ATOM      8  O   UNL     1      -9.919   0.661  -4.901  1.00  0.00    -0.289 OA
BRANCH   7   9
ATOM      9  C   UNL     1     -10.107   2.987  -5.064  1.00  0.00     0.023 A 
ATOM     10  C   UNL     1     -10.777   3.702  -4.071  1.00  0.00     0.012 A 
ATOM     11  C   UNL     1     -10.125   3.441  -6.382  1.00  0.00     0.012 A 
ATOM     12  C   UNL     1     -11.464   4.871  -4.397  1.00  0.00     0.004 A 
ATOM     13  C   UNL     1     -10.813   4.610  -6.710  1.00  0.00     0.004 A 
ATOM     14  C   UNL     1     -11.483   5.325  -5.717  1.00  0.00    -0.051 A 
ATOM     15  C   UNL     1     -12.220   6.573  -6.065  1.00  0.00     0.044 C 
ENDBRANCH   7   9
ENDBRANCH   1   7
BRANCH   4  16
ATOM     16  N   UNL     1      -4.827  -0.008  -4.616  1.00  0.00     0.066 N 
ATOM     17  O   UNL     1      -4.295  -0.820  -3.821  1.00  0.00    -0.258 OA
ATOM     18  O   UNL     1      -4.536   0.023  -5.834  1.00  0.00    -0.258 OA
ENDBRANCH   4  16
BRANCH   5  19
ATOM     19  O   UNL     1      -6.120   3.595  -1.646  1.00  0.00    -0.504 OA
ATOM     20  H   UNL     1      -6.097   4.493  -2.015  1.00  0.00     0.293 HD
ENDBRANCH   5  19
BRANCH   6  21
ATOM     21  O   UNL     1      -4.207   1.838  -2.581  1.00  0.00    -0.500 OA
ATOM     22  H   UNL     1      -3.923   0.934  -2.372  1.00  0.00     0.294 HD
ENDBRANCH   6  21
TORSDOF 5
ENDMDL
