MODEL 1
REMARK VINA RESULT:    -6.886      0.000      0.000
REMARK INTER + INTRA:          -8.644
REMARK INTER:                  -8.093
REMARK INTRA:                  -0.551
REMARK UNBOUND:                -0.551
REMARK SMILES O=C(O)c1cc(-c2ccc(F)cc2F)ccc1O
REMARK SMILES IDX 6 1 5 2 15 3 4 4 17 5 16 6 7 7 13 8 12 9 8 10 10 11 9 12
REMARK SMILES IDX 14 13 11 14 2 15 1 16 3 17 18 19
REMARK H PARENT 3 18 18 20
ROOT
ATOM      1  C   UNL     1      -7.446   2.440  -4.156  1.00  0.00    -0.014 A 
ATOM      2  C   UNL     1      -6.738   1.342  -4.643  1.00  0.00     0.028 A 
ATOM      3  C   UNL     1      -6.880   3.255  -3.175  1.00  0.00     0.013 A 
ATOM      4  C   UNL     1      -5.464   1.058  -4.150  1.00  0.00     0.102 A 
ATOM      5  C   UNL     1      -4.899   1.873  -3.170  1.00  0.00     0.130 A 
ATOM      6  C   UNL     1      -5.607   2.972  -2.682  1.00  0.00     0.048 A 
ENDROOT
BRANCH   1   7
ATOM      7  C   UNL     1      -8.768   2.735  -4.665  1.00  0.00     0.018 A 
ATOM      8  C   UNL     1      -9.021   2.665  -6.036  1.00  0.00     0.133 A 
ATOM      9  C   UNL     1     -10.297   2.950  -6.523  1.00  0.00     0.079 A 
ATOM     10  C   UNL     1      -9.789   3.087  -3.784  1.00  0.00     0.015 A 
ATOM     11  C   UNL     1     -11.318   3.303  -5.641  1.00  0.00     0.126 A 
ATOM     12  C   UNL     1     -11.064   3.371  -4.271  1.00  0.00     0.040 A 
ATOM     13  F   UNL     1      -8.050   2.331  -6.897  1.00  0.00    -0.206 F 
ATOM     14  F   UNL     1     -12.543   3.577  -6.108  1.00  0.00    -0.207 F 
ENDBRANCH   1   7
BRANCH   4  15
ATOM     15  C   UNL     1      -4.741  -0.093  -4.673  1.00  0.00     0.339 C 
ATOM     16  O   UNL     1      -4.253  -0.998  -3.993  1.00  0.00    -0.246 OA
BRANCH  15  17
ATOM     17  O   UNL     1      -4.652  -0.076  -6.031  1.00  0.00    -0.478 OA
ATOM     18  H   UNL     1      -5.174   0.656  -6.422  1.00  0.00     0.297 HD
ENDBRANCH  15  17
ENDBRANCH   4  15
BRANCH   5  19
ATOM     19  O   UNL     1      -3.655   1.613  -2.675  1.00  0.00    -0.507 OA
ATOM     20  H   UNL     1      -3.209   0.974  -3.258  1.00  0.00     0.293 HD
ENDBRANCH   5  19
TORSDOF 4
ENDMDL
MODEL 2
REMARK VINA RESULT:    -6.872      1.126      1.608
REMARK INTER + INTRA:          -8.629
REMARK INTER:                  -8.075
REMARK INTRA:                  -0.554
REMARK UNBOUND:                -0.551
REMARK SMILES O=C(O)c1cc(-c2ccc(F)cc2F)ccc1O
REMARK SMILES IDX 6 1 5 2 15 3 4 4 17 5 16 6 7 7 13 8 12 9 8 10 10 11 9 12
REMARK SMILES IDX 14 13 11 14 2 15 1 16 3 17 18 19
REMARK H PARENT 3 18 18 20
ROOT
ATOM      1  C   UNL     1      -7.449   2.427  -4.107  1.00  0.00    -0.014 A 
ATOM      2  C   UNL     1      -6.740   1.335  -4.606  1.00  0.00     0.028 A 
ATOM      3  C   UNL     1      -6.881   3.237  -3.124  1.00  0.00     0.013 A 
ATOM      4  C   UNL     1      -5.462   1.053  -4.123  1.00  0.00     0.102 A 
ATOM      5  C   UNL     1      -4.893   1.864  -3.140  1.00  0.00     0.130 A 
ATOM      6  C   UNL     1      -5.603   2.957  -2.641  1.00  0.00     0.048 A 
ENDROOT
BRANCH   1   7
ATOM      7  C   UNL     1      -8.775   2.719  -4.606  1.00  0.00     0.018 A 
ATOM      8  C   UNL     1      -9.803   3.041  -3.719  1.00  0.00     0.133 A 
ATOM      9  C   UNL     1     -11.080   3.322  -4.205  1.00  0.00     0.079 A 
ATOM     10  C   UNL     1      -9.025   2.679  -5.978  1.00  0.00     0.015 A 
ATOM     11  C   UNL     1     -11.330   3.281  -5.576  1.00  0.00     0.126 A 
ATOM     12  C   UNL     1     -10.301   2.960  -6.463  1.00  0.00     0.040 A 
ATOM     13  F   UNL     1      -9.581   3.081  -2.398  1.00  0.00    -0.206 F 
ATOM     14  F   UNL     1     -12.555   3.550  -6.043  1.00  0.00    -0.207 F 
ENDBRANCH   1   7
BRANCH   4  15
ATOM     15  C   UNL     1      -4.737  -0.092  -4.657  1.00  0.00     0.339 C 
ATOM     16  O   UNL     1      -4.245  -1.002  -3.986  1.00  0.00    -0.246 OA
BRANCH  15  17
ATOM     17  O   UNL     1      -4.651  -0.063  -6.015  1.00  0.00    -0.478 OA
ATOM     18  H   UNL     1      -4.676  -0.963  -6.401  1.00  0.00     0.297 HD
ENDBRANCH  15  17
ENDBRANCH   4  15
BRANCH   5  19
ATOM     19  O   UNL     1      -3.646   1.606  -2.655  1.00  0.00    -0.507 OA
ATOM     20  H   UNL     1      -3.659   1.686  -1.686  1.00  0.00     0.293 HD
ENDBRANCH   5  19
TORSDOF 4
ENDMDL
MODEL 3
REMARK VINA RESULT:    -6.810      1.706      3.197
REMARK INTER + INTRA:          -8.556
REMARK INTER:                  -7.870
REMARK INTRA:                  -0.686
REMARK UNBOUND:                -0.551
REMARK SMILES O=C(O)c1cc(-c2ccc(F)cc2F)ccc1O
REMARK SMILES IDX 6 1 5 2 15 3 4 4 17 5 16 6 7 7 13 8 12 9 8 10 10 11 9 12
REMARK SMILES IDX 14 13 11 14 2 15 1 16 3 17 18 19
REMARK H PARENT 3 18 18 20
ROOT
ATOM      1  C   UNL     1      -7.524   2.447  -4.040  1.00  0.00    -0.014 A 
ATOM      2  C   UNL     1      -6.987   3.343  -3.116  1.00  0.00     0.028 A 
ATOM      3  C   UNL     1      -6.794   1.323  -4.427  1.00  0.00     0.013 A 
ATOM      4  C   UNL     1      -5.720   3.116  -2.579  1.00  0.00     0.102 A 
ATOM      5  C   UNL     1      -4.990   1.992  -2.966  1.00  0.00     0.130 A 
ATOM      6  C   UNL     1      -5.527   1.095  -3.891  1.00  0.00     0.048 A 
ENDROOT
BRANCH   1   7
ATOM      7  C   UNL     1      -8.838   2.683  -4.598  1.00  0.00     0.018 A 
ATOM      8  C   UNL     1      -9.906   3.010  -3.762  1.00  0.00     0.133 A 
ATOM      9  C   UNL     1     -11.172   3.236  -4.305  1.00  0.00     0.079 A 
ATOM     10  C   UNL     1      -9.035   2.584  -5.975  1.00  0.00     0.015 A 
ATOM     11  C   UNL     1     -11.368   3.136  -5.682  1.00  0.00     0.126 A 
ATOM     12  C   UNL     1     -10.299   2.811  -6.517  1.00  0.00     0.040 A 
ATOM     13  F   UNL     1      -9.735   3.106  -2.436  1.00  0.00    -0.206 F 
ATOM     14  F   UNL     1     -12.582   3.354  -6.203  1.00  0.00    -0.207 F 
ENDBRANCH   1   7
BRANCH   4  15
ATOM     15  C   UNL     1      -5.177   4.063  -1.615  1.00  0.00     0.339 C 
ATOM     16  O   UNL     1      -4.004   4.443  -1.571  1.00  0.00    -0.246 OA
BRANCH  15  17
ATOM     17  O   UNL     1      -6.118   4.506  -0.738  1.00  0.00    -0.478 OA
ATOM     18  H   UNL     1      -6.842   4.987  -1.192  1.00  0.00     0.297 HD
ENDBRANCH  15  17
ENDBRANCH   4  15
BRANCH   5  19
ATOM     19  O   UNL     1      -3.750   1.751  -2.453  1.00  0.00    -0.507 OA
ATOM     20  H   UNL     1      -3.139   1.546  -3.182  1.00  0.00     0.293 HD
ENDBRANCH   5  19
TORSDOF 4
ENDMDL
MODEL 4
REMARK VINA RESULT:    -6.783      1.305      2.764
REMARK INTER + INTRA:          -8.524
REMARK INTER:                  -7.862
REMARK INTRA:                  -0.662
REMARK UNBOUND:                -0.551
REMARK SMILES O=C(O)c1cc(-c2ccc(F)cc2F)ccc1O
REMARK SMILES IDX 6 1 5 2 15 3 4 4 17 5 16 6 7 7 13 8 12 9 8 10 10 11 9 12
REMARK SMILES IDX 14 13 11 14 2 15 1 16 3 17 18 19
REMARK H PARENT 3 18 18 20
ROOT
ATOM      1  C   UNL     1      -7.498   2.474  -4.080  1.00  0.00    -0.014 A 
ATOM      2  C   UNL     1      -6.974   3.361  -3.141  1.00  0.00     0.028 A 
ATOM      3  C   UNL     1      -6.760   1.358  -4.474  1.00  0.00     0.013 A 
ATOM      4  C   UNL     1      -5.711   3.132  -2.594  1.00  0.00     0.102 A 
ATOM      5  C   UNL     1      -4.973   2.016  -2.987  1.00  0.00     0.130 A 
ATOM      6  C   UNL     1      -5.497   1.129  -3.928  1.00  0.00     0.048 A 
ENDROOT
BRANCH   1   7
ATOM      7  C   UNL     1      -8.808   2.711  -4.649  1.00  0.00     0.018 A 
ATOM      8  C   UNL     1      -9.000   2.615  -6.028  1.00  0.00     0.133 A 
ATOM      9  C   UNL     1     -10.264   2.845  -6.572  1.00  0.00     0.079 A 
ATOM     10  C   UNL     1      -9.878   3.035  -3.816  1.00  0.00     0.015 A 
ATOM     11  C   UNL     1     -11.334   3.170  -5.739  1.00  0.00     0.126 A 
ATOM     12  C   UNL     1     -11.141   3.264  -4.360  1.00  0.00     0.040 A 
ATOM     13  F   UNL     1      -7.982   2.308  -6.843  1.00  0.00    -0.206 F 
ATOM     14  F   UNL     1     -12.548   3.391  -6.260  1.00  0.00    -0.207 F 
ENDBRANCH   1   7
BRANCH   4  15
ATOM     15  C   UNL     1      -5.182   4.070  -1.613  1.00  0.00     0.339 C 
ATOM     16  O   UNL     1      -4.013   4.458  -1.555  1.00  0.00    -0.246 OA
BRANCH  15  17
ATOM     17  O   UNL     1      -6.132   4.494  -0.736  1.00  0.00    -0.478 OA
ATOM     18  H   UNL     1      -5.769   5.129  -0.084  1.00  0.00     0.297 HD
ENDBRANCH  15  17
ENDBRANCH   4  15
BRANCH   5  19
ATOM     19  O   UNL     1      -3.737   1.774  -2.465  1.00  0.00    -0.507 OA
ATOM     20  H   UNL     1      -3.715   0.869  -2.108  1.00  0.00     0.293 HD
ENDBRANCH   5  19
TORSDOF 4
ENDMDL
MODEL 5
REMARK VINA RESULT:    -5.630      1.265      1.336
REMARK INTER + INTRA:          -7.168
REMARK INTER:                  -6.639
REMARK INTRA:                  -0.530
REMARK UNBOUND:                -0.551
REMARK SMILES O=C(O)c1cc(-c2ccc(F)cc2F)ccc1O
REMARK SMILES IDX 6 1 5 2 15 3 4 4 17 5 16 6 7 7 13 8 12 9 8 10 10 11 9 12
REMARK SMILES IDX 14 13 11 14 2 15 1 16 3 17 18 19
REMARK H PARENT 3 18 18 20
ROOT
ATOM      1  C   UNL     1      -7.981   2.622  -4.568  1.00  0.00    -0.014 A 
ATOM      2  C   UNL     1      -7.355   1.518  -5.146  1.00  0.00     0.028 A 
ATOM      3  C   UNL     1      -7.331   3.349  -3.571  1.00  0.00     0.013 A 
ATOM      4  C   UNL     1      -6.080   1.139  -4.726  1.00  0.00     0.102 A 
ATOM      5  C   UNL     1      -5.430   1.866  -3.729  1.00  0.00     0.130 A 
ATOM      6  C   UNL     1      -6.056   2.971  -3.151  1.00  0.00     0.048 A 
ENDROOT
BRANCH   1   7
ATOM      7  C   UNL     1      -9.304   3.015  -5.002  1.00  0.00     0.018 A 
ATOM      8  C   UNL     1     -10.251   2.043  -5.330  1.00  0.00     0.133 A 
ATOM      9  C   UNL     1     -11.526   2.426  -5.748  1.00  0.00     0.079 A 
ATOM     10  C   UNL     1      -9.633   4.367  -5.092  1.00  0.00     0.015 A 
ATOM     11  C   UNL     1     -11.854   3.778  -5.838  1.00  0.00     0.126 A 
ATOM     12  C   UNL     1     -10.907   4.748  -5.510  1.00  0.00     0.040 A 
ATOM     13  F   UNL     1      -9.950   0.739  -5.251  1.00  0.00    -0.206 F 
ATOM     14  F   UNL     1     -13.077   4.146  -6.239  1.00  0.00    -0.207 F 
ENDBRANCH   1   7
BRANCH   4  15
ATOM     15  C   UNL     1      -5.444  -0.017  -5.343  1.00  0.00     0.339 C 
ATOM     16  O   UNL     1      -5.921  -1.153  -5.390  1.00  0.00    -0.246 OA
BRANCH  15  17
ATOM     17  O   UNL     1      -4.231   0.285  -5.881  1.00  0.00    -0.478 OA
ATOM     18  H   UNL     1      -4.176   0.023  -6.824  1.00  0.00     0.297 HD
ENDBRANCH  15  17
ENDBRANCH   4  15
BRANCH   5  19
ATOM     19  O   UNL     1      -4.183   1.513  -3.305  1.00  0.00    -0.507 OA
ATOM     20  H   UNL     1      -3.772   2.275  -2.861  1.00  0.00     0.293 HD
ENDBRANCH   5  19
TORSDOF 4
ENDMDL
MODEL 6
REMARK VINA RESULT:    -5.363      4.181      6.448
REMARK INTER + INTRA:          -6.854
REMARK INTER:                  -5.784
REMARK INTRA:                  -1.070
REMARK UNBOUND:                -0.551
REMARK SMILES O=C(O)c1cc(-c2ccc(F)cc2F)ccc1O
REMARK SMILES IDX 6 1 5 2 15 3 4 4 17 5 16 6 7 7 13 8 12 9 8 10 10 11 9 12
REMARK SMILES IDX 14 13 11 14 2 15 1 16 3 17 18 19
REMARK H PARENT 3 18 18 20
ROOT
ATOM      1  C   UNL     1      -9.904   2.998  -4.966  1.00  0.00    -0.014 A 
ATOM      2  C   UNL     1     -10.671   1.900  -5.357  1.00  0.00     0.028 A 
ATOM      3  C   UNL     1     -10.394   4.291  -5.147  1.00  0.00     0.013 A 
ATOM      4  C   UNL     1     -11.928   2.095  -5.929  1.00  0.00     0.102 A 
ATOM      5  C   UNL     1     -12.418   3.389  -6.110  1.00  0.00     0.130 A 
ATOM      6  C   UNL     1     -11.651   4.487  -5.719  1.00  0.00     0.048 A 
ENDROOT
BRANCH   1   7
ATOM      7  C   UNL     1      -8.599   2.796  -4.374  1.00  0.00     0.018 A 
ATOM      8  C   UNL     1      -8.452   2.800  -2.986  1.00  0.00     0.133 A 
ATOM      9  C   UNL     1      -7.192   2.605  -2.419  1.00  0.00     0.079 A 
ATOM     10  C   UNL     1      -7.489   2.596  -5.193  1.00  0.00     0.015 A 
ATOM     11  C   UNL     1      -6.081   2.407  -3.238  1.00  0.00     0.126 A 
ATOM     12  C   UNL     1      -6.230   2.401  -4.625  1.00  0.00     0.040 A 
ATOM     13  F   UNL     1      -9.509   2.993  -2.185  1.00  0.00    -0.206 F 
ATOM     14  F   UNL     1      -4.872   2.220  -2.695  1.00  0.00    -0.207 F 
ENDBRANCH   1   7
BRANCH   4  15
ATOM     15  C   UNL     1     -12.713   0.936  -6.330  1.00  0.00     0.339 C 
ATOM     16  O   UNL     1     -13.764   0.974  -6.975  1.00  0.00    -0.246 OA
BRANCH  15  17
ATOM     17  O   UNL     1     -12.159  -0.234  -5.913  1.00  0.00    -0.478 OA
ATOM     18  H   UNL     1     -11.180  -0.204  -5.939  1.00  0.00     0.297 HD
ENDBRANCH  15  17
ENDBRANCH   4  15
BRANCH   5  19
ATOM     19  O   UNL     1     -13.644   3.601  -6.667  1.00  0.00    -0.507 OA
ATOM     20  H   UNL     1     -13.610   3.364  -7.610  1.00  0.00     0.293 HD
ENDBRANCH   5  19
TORSDOF 4
ENDMDL
MODEL 7
REMARK VINA RESULT:    -5.359      4.359      6.677
REMARK INTER + INTRA:          -6.849
REMARK INTER:                  -5.783
REMARK INTRA:                  -1.066
REMARK UNBOUND:                -0.551
REMARK SMILES O=C(O)c1cc(-c2ccc(F)cc2F)ccc1O
REMARK SMILES IDX 6 1 5 2 15 3 4 4 17 5 16 6 7 7 13 8 12 9 8 10 10 11 9 12
REMARK SMILES IDX 14 13 11 14 2 15 1 16 3 17 18 19
REMARK H PARENT 3 18 18 20
ROOT
ATOM      1  C   UNL     1      -9.844   2.852  -5.236  1.00  0.00    -0.014 A 
ATOM      2  C   UNL     1     -10.225   4.192  -5.288  1.00  0.00     0.028 A 
ATOM      3  C   UNL     1     -10.739   1.857  -5.629  1.00  0.00     0.013 A 
ATOM      4  C   UNL     1     -11.501   4.538  -5.734  1.00  0.00     0.102 A 
ATOM      5  C   UNL     1     -12.396   3.543  -6.127  1.00  0.00     0.130 A 
ATOM      6  C   UNL     1     -12.015   2.202  -6.075  1.00  0.00     0.048 A 
ENDROOT
BRANCH   1   7
ATOM      7  C   UNL     1      -8.521   2.492  -4.772  1.00  0.00     0.018 A 
ATOM      8  C   UNL     1      -7.501   2.244  -5.691  1.00  0.00     0.133 A 
ATOM      9  C   UNL     1      -6.227   1.897  -5.239  1.00  0.00     0.079 A 
ATOM     10  C   UNL     1      -8.268   2.394  -3.404  1.00  0.00     0.015 A 
ATOM     11  C   UNL     1      -5.974   1.799  -3.872  1.00  0.00     0.126 A 
ATOM     12  C   UNL     1      -6.995   2.048  -2.954  1.00  0.00     0.040 A 
ATOM     13  F   UNL     1      -7.728   2.331  -7.009  1.00  0.00    -0.206 F 
ATOM     14  F   UNL     1      -4.752   1.466  -3.438  1.00  0.00    -0.207 F 
ENDBRANCH   1   7
BRANCH   4  15
ATOM     15  C   UNL     1     -11.879   5.944  -5.782  1.00  0.00     0.339 C 
ATOM     16  O   UNL     1     -13.032   6.370  -5.879  1.00  0.00    -0.246 OA
BRANCH  15  17
ATOM     17  O   UNL     1     -10.803   6.773  -5.704  1.00  0.00    -0.478 OA
ATOM     18  H   UNL     1     -10.569   6.982  -4.775  1.00  0.00     0.297 HD
ENDBRANCH  15  17
ENDBRANCH   4  15
BRANCH   5  19
ATOM     19  O   UNL     1     -13.647   3.860  -6.566  1.00  0.00    -0.507 OA
ATOM     20  H   UNL     1     -13.816   3.396  -7.404  1.00  0.00     0.293 HD
ENDBRANCH   5  19
TORSDOF 4
ENDMDL
MODEL 8
REMARK VINA RESULT:    -5.325      4.084      6.317
REMARK INTER + INTRA:          -6.810
REMARK INTER:                  -5.724
REMARK INTRA:                  -1.086
REMARK UNBOUND:                -0.551
REMARK SMILES O=C(O)c1cc(-c2ccc(F)cc2F)ccc1O
REMARK SMILES IDX 6 1 5 2 15 3 4 4 17 5 16 6 7 7 13 8 12 9 8 10 10 11 9 12
REMARK SMILES IDX 14 13 11 14 2 15 1 16 3 17 18 19
REMARK H PARENT 3 18 18 20
ROOT
ATOM      1  C   UNL     1      -9.683   2.712  -5.261  1.00  0.00    -0.014 A 
ATOM      2  C   UNL     1     -10.700   1.844  -5.653  1.00  0.00     0.028 A 
ATOM      3  C   UNL     1      -9.902   4.090  -5.263  1.00  0.00     0.013 A 
ATOM      4  C   UNL     1     -11.938   2.352  -6.049  1.00  0.00     0.102 A 
ATOM      5  C   UNL     1     -12.157   3.730  -6.051  1.00  0.00     0.130 A 
ATOM      6  C   UNL     1     -11.138   4.599  -5.658  1.00  0.00     0.048 A 
ENDROOT
BRANCH   1   7
ATOM      7  C   UNL     1      -8.398   2.186  -4.852  1.00  0.00     0.018 A 
ATOM      8  C   UNL     1      -7.386   1.997  -5.794  1.00  0.00     0.133 A 
ATOM      9  C   UNL     1      -6.150   1.489  -5.395  1.00  0.00     0.079 A 
ATOM     10  C   UNL     1      -8.173   1.869  -3.512  1.00  0.00     0.015 A 
ATOM     11  C   UNL     1      -5.925   1.171  -4.056  1.00  0.00     0.126 A 
ATOM     12  C   UNL     1      -6.936   1.362  -3.115  1.00  0.00     0.040 A 
ATOM     13  F   UNL     1      -7.588   2.294  -7.085  1.00  0.00    -0.206 F 
ATOM     14  F   UNL     1      -4.738   0.683  -3.673  1.00  0.00    -0.207 F 
ENDBRANCH   1   7
BRANCH   4  15
ATOM     15  C   UNL     1     -12.988   1.428  -6.455  1.00  0.00     0.339 C 
ATOM     16  O   UNL     1     -14.138   1.747  -6.765  1.00  0.00    -0.246 OA
BRANCH  15  17
ATOM     17  O   UNL     1     -12.566   0.134  -6.462  1.00  0.00    -0.478 OA
ATOM     18  H   UNL     1     -11.846  -0.018  -5.813  1.00  0.00     0.297 HD
ENDBRANCH  15  17
ENDBRANCH   4  15
BRANCH   5  19
ATOM     19  O   UNL     1     -13.359   4.246  -6.434  1.00  0.00    -0.507 OA
ATOM     20  H   UNL     1     -13.387   4.299  -7.405  1.00  0.00     0.293 HD
ENDBRANCH   5  19
TORSDOF 4
ENDMDL
MODEL 9
REMARK VINA RESULT:    -4.424      8.870     11.352
REMARK INTER + INTRA:          -5.750
REMARK INTER:                  -4.846
REMARK INTRA:                  -0.904
REMARK UNBOUND:                -0.551
REMARK SMILES O=C(O)c1cc(-c2ccc(F)cc2F)ccc1O
REMARK SMILES IDX 6 1 5 2 15 3 4 4 17 5 16 6 7 7 13 8 12 9 8 10 10 11 9 12
REMARK SMILES IDX 14 13 11 14 2 15 1 16 3 17 18 19
REMARK H PARENT 3 18 18 20
ROOT
ATOM      1  C   UNL     1     -13.107   8.836  -8.496  1.00  0.00    -0.014 A 
ATOM      2  C   UNL     1     -13.738  10.022  -8.125  1.00  0.00     0.028 A 
ATOM      3  C   UNL     1     -12.826   8.586  -9.840  1.00  0.00     0.013 A 
ATOM      4  C   UNL     1     -14.089  10.960  -9.096  1.00  0.00     0.102 A 
ATOM      5  C   UNL     1     -13.808  10.711 -10.439  1.00  0.00     0.130 A 
ATOM      6  C   UNL     1     -13.176   9.523 -10.811  1.00  0.00     0.048 A 
ENDROOT
BRANCH   1   7
ATOM      7  C   UNL     1     -12.744   7.862  -7.489  1.00  0.00     0.018 A 
ATOM      8  C   UNL     1     -13.737   7.192  -6.773  1.00  0.00     0.133 A 
ATOM      9  C   UNL     1     -13.383   6.254  -5.803  1.00  0.00     0.079 A 
ATOM     10  C   UNL     1     -11.400   7.593  -7.236  1.00  0.00     0.015 A 
ATOM     11  C   UNL     1     -12.038   5.985  -5.550  1.00  0.00     0.126 A 
ATOM     12  C   UNL     1     -11.047   6.655  -6.267  1.00  0.00     0.040 A 
ATOM     13  F   UNL     1     -15.034   7.441  -7.002  1.00  0.00    -0.206 F 
ATOM     14  F   UNL     1     -11.698   5.085  -4.619  1.00  0.00    -0.207 F 
ENDBRANCH   1   7
BRANCH   4  15
ATOM     15  C   UNL     1     -14.747  12.193  -8.687  1.00  0.00     0.339 C 
ATOM     16  O   UNL     1     -15.681  12.735  -9.283  1.00  0.00    -0.246 OA
BRANCH  15  17
ATOM     17  O   UNL     1     -14.217  12.709  -7.545  1.00  0.00    -0.478 OA
ATOM     18  H   UNL     1     -13.730  12.032  -7.031  1.00  0.00     0.297 HD
ENDBRANCH  15  17
ENDBRANCH   4  15
BRANCH   5  19
ATOM     19  O   UNL     1     -14.141  11.614 -11.404  1.00  0.00    -0.507 OA
ATOM     20  H   UNL     1     -15.098  11.560 -11.572  1.00  0.00     0.293 HD
ENDBRANCH   5  19
TORSDOF 4
ENDMDL
