MODEL 1
REMARK VINA RESULT:    -4.877      0.000      0.000
REMARK INTER + INTRA:          -6.777
REMARK INTER:                  -6.018
REMARK INTRA:                  -0.759
REMARK UNBOUND:                -0.759
REMARK SMILES Cc1ccc(C(=O)c2cc(O)c(O)c([N+](=O)[O-])c2)cc1
REMARK SMILES IDX 8 1 18 2 9 3 14 4 10 5 12 6 6 7 7 8 5 9 4 10 19 11 3 12
REMARK SMILES IDX 20 13 2 14 1 15 15 16 17 17 16 18 11 19 13 21
REMARK H PARENT 11 20 13 22
ROOT
ATOM      1  C   UNL     1       6.297  -1.820  -4.169  1.00  0.00     0.033 A 
ATOM      2  C   UNL     1       6.487  -0.864  -3.199  1.00  0.00     0.102 A 
ATOM      3  C   UNL     1       5.132  -2.540  -4.290  1.00  0.00     0.063 A 
ATOM      4  C   UNL     1       5.452  -0.612  -2.299  1.00  0.00     0.315 A 
ATOM      5  C   UNL     1       4.097  -2.289  -3.389  1.00  0.00     0.165 A 
ATOM      6  C   UNL     1       4.256  -1.324  -2.394  1.00  0.00     0.237 A 
ENDROOT
BRANCH   1   7
ATOM      7  C   UNL     1       7.406  -2.090  -5.133  1.00  0.00     0.193 C 
ATOM      8  O   UNL     1       7.103  -2.211  -6.330  1.00  0.00    -0.289 OA
BRANCH   7   9
ATOM      9  C   UNL     1       8.793  -2.211  -4.712  1.00  0.00     0.023 A 
ATOM     10  C   UNL     1       9.347  -3.472  -4.488  1.00  0.00     0.012 A 
ATOM     11  C   UNL     1       9.570  -1.067  -4.533  1.00  0.00     0.012 A 
ATOM     12  C   UNL     1      10.677  -3.587  -4.085  1.00  0.00     0.004 A 
ATOM     13  C   UNL     1      10.901  -1.182  -4.130  1.00  0.00     0.004 A 
ATOM     14  C   UNL     1      11.454  -2.442  -3.906  1.00  0.00    -0.051 A 
ATOM     15  C   UNL     1      12.876  -2.567  -3.474  1.00  0.00     0.044 C 
ENDBRANCH   7   9
ENDBRANCH   1   7
BRANCH   4  16
ATOM     16  N   UNL     1       5.633   0.375  -1.291  1.00  0.00     0.066 N 
ATOM     17  O   UNL     1       5.069   0.218  -0.182  1.00  0.00    -0.258 OA
ATOM     18  O   UNL     1       6.352   1.370  -1.540  1.00  0.00    -0.258 OA
ENDBRANCH   4  16
BRANCH   5  19
ATOM     19  O   UNL     1       2.934  -2.992  -3.494  1.00  0.00    -0.504 OA
ATOM     20  H   UNL     1       2.191  -2.437  -3.207  1.00  0.00     0.293 HD
ENDBRANCH   5  19
BRANCH   6  21
ATOM     21  O   UNL     1       3.236  -1.087  -1.519  1.00  0.00    -0.500 OA
ATOM     22  H   UNL     1       3.502  -1.358  -0.627  1.00  0.00     0.294 HD
ENDBRANCH   6  21
TORSDOF 5
ENDMDL
MODEL 2
REMARK VINA RESULT:    -4.835      2.010      3.509
REMARK INTER + INTRA:          -6.725
REMARK INTER:                  -5.952
REMARK INTRA:                  -0.773
REMARK UNBOUND:                -0.759
REMARK SMILES Cc1ccc(C(=O)c2cc(O)c(O)c([N+](=O)[O-])c2)cc1
REMARK SMILES IDX 8 1 18 2 9 3 14 4 10 5 12 6 6 7 7 8 5 9 4 10 19 11 3 12
REMARK SMILES IDX 20 13 2 14 1 15 15 16 17 17 16 18 11 19 13 21
REMARK H PARENT 11 20 13 22
ROOT
ATOM      1  C   UNL     1       7.048  -1.804  -2.556  1.00  0.00     0.033 A 
ATOM      2  C   UNL     1       6.103  -2.590  -3.174  1.00  0.00     0.102 A 
ATOM      3  C   UNL     1       6.723  -0.732  -1.760  1.00  0.00     0.063 A 
ATOM      4  C   UNL     1       4.755  -2.285  -2.984  1.00  0.00     0.315 A 
ATOM      5  C   UNL     1       5.375  -0.426  -1.571  1.00  0.00     0.165 A 
ATOM      6  C   UNL     1       4.391  -1.204  -2.182  1.00  0.00     0.237 A 
ENDROOT
BRANCH   1   7
ATOM      7  C   UNL     1       8.492  -2.130  -2.760  1.00  0.00     0.193 C 
ATOM      8  O   UNL     1       9.226  -2.114  -1.760  1.00  0.00    -0.289 OA
BRANCH   7   9
ATOM      9  C   UNL     1       9.041  -2.457  -4.066  1.00  0.00     0.023 A 
ATOM     10  C   UNL     1       9.652  -1.466  -4.834  1.00  0.00     0.012 A 
ATOM     11  C   UNL     1       8.957  -3.762  -4.552  1.00  0.00     0.012 A 
ATOM     12  C   UNL     1      10.179  -1.780  -6.087  1.00  0.00     0.004 A 
ATOM     13  C   UNL     1       9.483  -4.077  -5.805  1.00  0.00     0.004 A 
ATOM     14  C   UNL     1      10.095  -3.085  -6.573  1.00  0.00    -0.051 A 
ATOM     15  C   UNL     1      10.656  -3.420  -7.913  1.00  0.00     0.044 C 
ENDBRANCH   7   9
ENDBRANCH   1   7
BRANCH   4  16
ATOM     16  N   UNL     1       3.767  -3.088  -3.616  1.00  0.00     0.066 N 
ATOM     17  O   UNL     1       4.005  -4.305  -3.807  1.00  0.00    -0.258 OA
ATOM     18  O   UNL     1       2.686  -2.557  -3.963  1.00  0.00    -0.258 OA
ENDBRANCH   4  16
BRANCH   5  19
ATOM     19  O   UNL     1       5.034   0.633  -0.784  1.00  0.00    -0.504 OA
ATOM     20  H   UNL     1       5.026   1.445  -1.317  1.00  0.00     0.293 HD
ENDBRANCH   5  19
BRANCH   6  21
ATOM     21  O   UNL     1       3.076  -0.895  -1.989  1.00  0.00    -0.500 OA
ATOM     22  H   UNL     1       2.924  -0.685  -1.054  1.00  0.00     0.294 HD
ENDBRANCH   6  21
TORSDOF 5
ENDMDL
MODEL 3
REMARK VINA RESULT:    -4.795      3.902      7.084
REMARK INTER + INTRA:          -6.676
REMARK INTER:                  -6.023
REMARK INTRA:                  -0.653
REMARK UNBOUND:                -0.759
REMARK SMILES Cc1ccc(C(=O)c2cc(O)c(O)c([N+](=O)[O-])c2)cc1
REMARK SMILES IDX 8 1 18 2 9 3 14 4 10 5 12 6 6 7 7 8 5 9 4 10 19 11 3 12
REMARK SMILES IDX 20 13 2 14 1 15 15 16 17 17 16 18 11 19 13 21
REMARK H PARENT 11 20 13 22
ROOT
ATOM      1  C   UNL     1       9.965  -2.469  -4.657  1.00  0.00     0.033 A 
ATOM      2  C   UNL     1      10.651  -2.842  -5.790  1.00  0.00     0.102 A 
ATOM      3  C   UNL     1      10.579  -2.279  -3.441  1.00  0.00     0.063 A 
ATOM      4  C   UNL     1      12.029  -3.034  -5.702  1.00  0.00     0.315 A 
ATOM      5  C   UNL     1      11.958  -2.472  -3.353  1.00  0.00     0.165 A 
ATOM      6  C   UNL     1      12.684  -2.849  -4.484  1.00  0.00     0.237 A 
ENDROOT
BRANCH   1   7
ATOM      7  C   UNL     1       8.488  -2.263  -4.750  1.00  0.00     0.193 C 
ATOM      8  O   UNL     1       7.918  -2.689  -5.766  1.00  0.00    -0.289 OA
BRANCH   7   9
ATOM      9  C   UNL     1       7.727  -1.595  -3.707  1.00  0.00     0.023 A 
ATOM     10  C   UNL     1       7.138  -2.342  -2.686  1.00  0.00     0.012 A 
ATOM     11  C   UNL     1       7.584  -0.208  -3.728  1.00  0.00     0.012 A 
ATOM     12  C   UNL     1       6.408  -1.700  -1.686  1.00  0.00     0.004 A 
ATOM     13  C   UNL     1       6.854   0.434  -2.727  1.00  0.00     0.004 A 
ATOM     14  C   UNL     1       6.265  -0.312  -1.706  1.00  0.00    -0.051 A 
ATOM     15  C   UNL     1       5.483   0.372  -0.637  1.00  0.00     0.044 C 
ENDBRANCH   7   9
ENDBRANCH   1   7
BRANCH   4  16
ATOM     16  N   UNL     1      12.752  -3.419  -6.865  1.00  0.00     0.066 N 
ATOM     17  O   UNL     1      12.134  -3.538  -7.950  1.00  0.00    -0.258 OA
ATOM     18  O   UNL     1      13.984  -3.627  -6.771  1.00  0.00    -0.258 OA
ENDBRANCH   4  16
BRANCH   5  19
ATOM     19  O   UNL     1      12.584  -2.287  -2.157  1.00  0.00    -0.504 OA
ATOM     20  H   UNL     1      12.348  -3.009  -1.551  1.00  0.00     0.293 HD
ENDBRANCH   5  19
BRANCH   6  21
ATOM     21  O   UNL     1      14.032  -3.034  -4.386  1.00  0.00    -0.500 OA
ATOM     22  H   UNL     1      14.270  -3.902  -4.749  1.00  0.00     0.294 HD
ENDBRANCH   6  21
TORSDOF 5
ENDMDL
MODEL 4
REMARK VINA RESULT:    -4.764      3.822      7.061
REMARK INTER + INTRA:          -6.638
REMARK INTER:                  -5.986
REMARK INTRA:                  -0.651
REMARK UNBOUND:                -0.759
REMARK SMILES Cc1ccc(C(=O)c2cc(O)c(O)c([N+](=O)[O-])c2)cc1
REMARK SMILES IDX 8 1 18 2 9 3 14 4 10 5 12 6 6 7 7 8 5 9 4 10 19 11 3 12
REMARK SMILES IDX 20 13 2 14 1 15 15 16 17 17 16 18 11 19 13 21
REMARK H PARENT 11 20 13 22
ROOT
ATOM      1  C   UNL     1       9.764  -2.655  -5.044  1.00  0.00     0.033 A 
ATOM      2  C   UNL     1      11.123  -2.770  -4.866  1.00  0.00     0.102 A 
ATOM      3  C   UNL     1       9.154  -2.829  -6.263  1.00  0.00     0.063 A 
ATOM      4  C   UNL     1      11.917  -3.078  -5.970  1.00  0.00     0.315 A 
ATOM      5  C   UNL     1       9.948  -3.137  -7.369  1.00  0.00     0.165 A 
ATOM      6  C   UNL     1      11.330  -3.262  -7.222  1.00  0.00     0.237 A 
ENDROOT
BRANCH   1   7
ATOM      7  C   UNL     1       8.913  -2.324  -3.861  1.00  0.00     0.193 C 
ATOM      8  O   UNL     1       9.490  -1.914  -2.843  1.00  0.00    -0.289 OA
BRANCH   7   9
ATOM      9  C   UNL     1       7.467  -2.468  -3.876  1.00  0.00     0.023 A 
ATOM     10  C   UNL     1       6.883  -3.685  -3.523  1.00  0.00     0.012 A 
ATOM     11  C   UNL     1       6.662  -1.390  -4.244  1.00  0.00     0.012 A 
ATOM     12  C   UNL     1       5.495  -3.822  -3.537  1.00  0.00     0.004 A 
ATOM     13  C   UNL     1       5.274  -1.527  -4.259  1.00  0.00     0.004 A 
ATOM     14  C   UNL     1       4.690  -2.744  -3.905  1.00  0.00    -0.051 A 
ATOM     15  C   UNL     1       3.207  -2.892  -3.922  1.00  0.00     0.044 C 
ENDBRANCH   7   9
ENDBRANCH   1   7
BRANCH   4  16
ATOM     16  N   UNL     1      13.324  -3.201  -5.801  1.00  0.00     0.066 N 
ATOM     17  O   UNL     1      13.818  -2.996  -4.666  1.00  0.00    -0.258 OA
ATOM     18  O   UNL     1      14.028  -3.511  -6.790  1.00  0.00    -0.258 OA
ENDBRANCH   4  16
BRANCH   5  19
ATOM     19  O   UNL     1       9.361  -3.314  -8.585  1.00  0.00    -0.504 OA
ATOM     20  H   UNL     1       8.431  -3.569  -8.464  1.00  0.00     0.293 HD
ENDBRANCH   5  19
BRANCH   6  21
ATOM     21  O   UNL     1      12.096  -3.564  -8.310  1.00  0.00    -0.500 OA
ATOM     22  H   UNL     1      12.908  -3.033  -8.295  1.00  0.00     0.294 HD
ENDBRANCH   6  21
TORSDOF 5
ENDMDL
MODEL 5
REMARK VINA RESULT:    -4.528      3.772      6.657
REMARK INTER + INTRA:          -6.346
REMARK INTER:                  -5.508
REMARK INTRA:                  -0.838
REMARK UNBOUND:                -0.759
REMARK SMILES Cc1ccc(C(=O)c2cc(O)c(O)c([N+](=O)[O-])c2)cc1
REMARK SMILES IDX 8 1 18 2 9 3 14 4 10 5 12 6 6 7 7 8 5 9 4 10 19 11 3 12
REMARK SMILES IDX 20 13 2 14 1 15 15 16 17 17 16 18 11 19 13 21
REMARK H PARENT 11 20 13 22
ROOT
ATOM      1  C   UNL     1      10.016  -2.547  -4.646  1.00  0.00     0.033 A 
ATOM      2  C   UNL     1      10.608  -2.510  -3.405  1.00  0.00     0.102 A 
ATOM      3  C   UNL     1      10.721  -2.780  -5.803  1.00  0.00     0.063 A 
ATOM      4  C   UNL     1      11.985  -2.719  -3.317  1.00  0.00     0.315 A 
ATOM      5  C   UNL     1      12.098  -2.988  -5.715  1.00  0.00     0.165 A 
ATOM      6  C   UNL     1      12.730  -2.958  -4.471  1.00  0.00     0.237 A 
ENDROOT
BRANCH   1   7
ATOM      7  C   UNL     1       8.542  -2.323  -4.742  1.00  0.00     0.193 C 
ATOM      8  O   UNL     1       7.960  -2.780  -5.737  1.00  0.00    -0.289 OA
BRANCH   7   9
ATOM      9  C   UNL     1       7.795  -1.603  -3.723  1.00  0.00     0.023 A 
ATOM     10  C   UNL     1       7.698  -0.213  -3.781  1.00  0.00     0.012 A 
ATOM     11  C   UNL     1       7.176  -2.303  -2.687  1.00  0.00     0.012 A 
ATOM     12  C   UNL     1       6.981   0.477  -2.804  1.00  0.00     0.004 A 
ATOM     13  C   UNL     1       6.459  -1.613  -1.709  1.00  0.00     0.004 A 
ATOM     14  C   UNL     1       6.361  -0.222  -1.767  1.00  0.00    -0.051 A 
ATOM     15  C   UNL     1       5.597   0.516  -0.722  1.00  0.00     0.044 C 
ENDBRANCH   7   9
ENDBRANCH   1   7
BRANCH   4  16
ATOM     16  N   UNL     1      12.611  -2.684  -2.041  1.00  0.00     0.066 N 
ATOM     17  O   UNL     1      12.124  -1.951  -1.147  1.00  0.00    -0.258 OA
ATOM     18  O   UNL     1      13.629  -3.388  -1.846  1.00  0.00    -0.258 OA
ENDBRANCH   4  16
BRANCH   5  19
ATOM     19  O   UNL     1      12.813  -3.221  -6.851  1.00  0.00    -0.504 OA
ATOM     20  H   UNL     1      12.476  -4.019  -7.290  1.00  0.00     0.293 HD
ENDBRANCH   5  19
BRANCH   6  21
ATOM     21  O   UNL     1      14.077  -3.164  -4.397  1.00  0.00    -0.500 OA
ATOM     22  H   UNL     1      14.439  -3.276  -5.290  1.00  0.00     0.294 HD
ENDBRANCH   6  21
TORSDOF 5
ENDMDL
MODEL 6
REMARK VINA RESULT:    -4.456      3.580      7.252
REMARK INTER + INTRA:          -6.257
REMARK INTER:                  -5.248
REMARK INTRA:                  -1.009
REMARK UNBOUND:                -0.759
REMARK SMILES Cc1ccc(C(=O)c2cc(O)c(O)c([N+](=O)[O-])c2)cc1
REMARK SMILES IDX 8 1 18 2 9 3 14 4 10 5 12 6 6 7 7 8 5 9 4 10 19 11 3 12
REMARK SMILES IDX 20 13 2 14 1 15 15 16 17 17 16 18 11 19 13 21
REMARK H PARENT 11 20 13 22
ROOT
ATOM      1  C   UNL     1       9.887  -1.985  -4.827  1.00  0.00     0.033 A 
ATOM      2  C   UNL     1       9.748  -2.337  -6.149  1.00  0.00     0.102 A 
ATOM      3  C   UNL     1      11.045  -2.194  -4.117  1.00  0.00     0.063 A 
ATOM      4  C   UNL     1      10.829  -2.933  -6.799  1.00  0.00     0.315 A 
ATOM      5  C   UNL     1      12.127  -2.790  -4.766  1.00  0.00     0.165 A 
ATOM      6  C   UNL     1      12.019  -3.159  -6.108  1.00  0.00     0.237 A 
ENDROOT
BRANCH   1   7
ATOM      7  C   UNL     1       8.729  -1.347  -4.131  1.00  0.00     0.193 C 
ATOM      8  O   UNL     1       8.926  -0.251  -3.586  1.00  0.00    -0.289 OA
BRANCH   7   9
ATOM      9  C   UNL     1       7.413  -1.964  -4.081  1.00  0.00     0.023 A 
ATOM     10  C   UNL     1       6.296  -1.263  -4.536  1.00  0.00     0.012 A 
ATOM     11  C   UNL     1       7.268  -3.258  -3.579  1.00  0.00     0.012 A 
ATOM     12  C   UNL     1       5.035  -1.856  -4.488  1.00  0.00     0.004 A 
ATOM     13  C   UNL     1       6.006  -3.851  -3.531  1.00  0.00     0.004 A 
ATOM     14  C   UNL     1       4.889  -3.150  -3.986  1.00  0.00    -0.051 A 
ATOM     15  C   UNL     1       3.540  -3.782  -3.933  1.00  0.00     0.044 C 
ENDBRANCH   7   9
ENDBRANCH   1   7
BRANCH   4  16
ATOM     16  N   UNL     1      10.700  -3.302  -8.166  1.00  0.00     0.066 N 
ATOM     17  O   UNL     1      11.343  -4.293  -8.589  1.00  0.00    -0.258 OA
ATOM     18  O   UNL     1       9.947  -2.628  -8.907  1.00  0.00    -0.258 OA
ENDBRANCH   4  16
BRANCH   5  19
ATOM     19  O   UNL     1      13.284  -3.005  -4.078  1.00  0.00    -0.504 OA
ATOM     20  H   UNL     1      13.076  -3.323  -3.184  1.00  0.00     0.293 HD
ENDBRANCH   5  19
BRANCH   6  21
ATOM     21  O   UNL     1      13.084  -3.741  -6.732  1.00  0.00    -0.500 OA
ATOM     22  H   UNL     1      13.869  -3.180  -6.628  1.00  0.00     0.294 HD
ENDBRANCH   6  21
TORSDOF 5
ENDMDL
MODEL 7
REMARK VINA RESULT:    -4.146      1.451      2.895
REMARK INTER + INTRA:          -5.875
REMARK INTER:                  -5.540
REMARK INTRA:                  -0.335
REMARK UNBOUND:                -0.759
REMARK SMILES Cc1ccc(C(=O)c2cc(O)c(O)c([N+](=O)[O-])c2)cc1
REMARK SMILES IDX 8 1 18 2 9 3 14 4 10 5 12 6 6 7 7 8 5 9 4 10 19 11 3 12
REMARK SMILES IDX 20 13 2 14 1 15 15 16 17 17 16 18 11 19 13 21
REMARK H PARENT 11 20 13 22
ROOT
ATOM      1  C   UNL     1       7.417  -1.893  -4.329  1.00  0.00     0.033 A 
ATOM      2  C   UNL     1       6.237  -2.600  -4.302  1.00  0.00     0.102 A 
ATOM      3  C   UNL     1       7.616  -0.745  -3.600  1.00  0.00     0.063 A 
ATOM      4  C   UNL     1       5.197  -2.131  -3.499  1.00  0.00     0.315 A 
ATOM      5  C   UNL     1       6.576  -0.275  -2.798  1.00  0.00     0.165 A 
ATOM      6  C   UNL     1       5.366  -0.969  -2.747  1.00  0.00     0.237 A 
ENDROOT
BRANCH   1   7
ATOM      7  C   UNL     1       8.530  -2.396  -5.189  1.00  0.00     0.193 C 
ATOM      8  O   UNL     1       8.246  -2.736  -6.347  1.00  0.00    -0.289 OA
BRANCH   7   9
ATOM      9  C   UNL     1       9.901  -2.491  -4.713  1.00  0.00     0.023 A 
ATOM     10  C   UNL     1      10.183  -2.311  -3.358  1.00  0.00     0.012 A 
ATOM     11  C   UNL     1      10.934  -2.762  -5.610  1.00  0.00     0.012 A 
ATOM     12  C   UNL     1      11.498  -2.403  -2.902  1.00  0.00     0.004 A 
ATOM     13  C   UNL     1      12.249  -2.854  -5.153  1.00  0.00     0.004 A 
ATOM     14  C   UNL     1      12.531  -2.674  -3.799  1.00  0.00    -0.051 A 
ATOM     15  C   UNL     1      13.937  -2.771  -3.311  1.00  0.00     0.044 C 
ENDBRANCH   7   9
ENDBRANCH   1   7
BRANCH   4  16
ATOM     16  N   UNL     1       3.971  -2.851  -3.460  1.00  0.00     0.066 N 
ATOM     17  O   UNL     1       2.895  -2.212  -3.370  1.00  0.00    -0.258 OA
ATOM     18  O   UNL     1       4.002  -4.102  -3.517  1.00  0.00    -0.258 OA
ENDBRANCH   4  16
BRANCH   5  19
ATOM     19  O   UNL     1       6.755   0.862  -2.068  1.00  0.00    -0.504 OA
ATOM     20  H   UNL     1       6.968   0.628  -1.150  1.00  0.00     0.293 HD
ENDBRANCH   5  19
BRANCH   6  21
ATOM     21  O   UNL     1       4.356  -0.500  -1.958  1.00  0.00    -0.500 OA
ATOM     22  H   UNL     1       3.983  -1.229  -1.438  1.00  0.00     0.294 HD
ENDBRANCH   6  21
TORSDOF 5
ENDMDL
MODEL 8
REMARK VINA RESULT:    -4.127      2.118      2.587
REMARK INTER + INTRA:          -5.852
REMARK INTER:                  -5.544
REMARK INTRA:                  -0.308
REMARK UNBOUND:                -0.759
REMARK SMILES Cc1ccc(C(=O)c2cc(O)c(O)c([N+](=O)[O-])c2)cc1
REMARK SMILES IDX 8 1 18 2 9 3 14 4 10 5 12 6 6 7 7 8 5 9 4 10 19 11 3 12
REMARK SMILES IDX 20 13 2 14 1 15 15 16 17 17 16 18 11 19 13 21
REMARK H PARENT 11 20 13 22
ROOT
ATOM      1  C   UNL     1       7.798  -2.149  -3.188  1.00  0.00     0.033 A 
ATOM      2  C   UNL     1       7.368  -1.068  -2.454  1.00  0.00     0.102 A 
ATOM      3  C   UNL     1       6.948  -3.129  -3.642  1.00  0.00     0.063 A 
ATOM      4  C   UNL     1       6.008  -0.960  -2.160  1.00  0.00     0.315 A 
ATOM      5  C   UNL     1       5.588  -3.022  -3.347  1.00  0.00     0.165 A 
ATOM      6  C   UNL     1       5.119  -1.937  -2.606  1.00  0.00     0.237 A 
ENDROOT
BRANCH   1   7
ATOM      7  C   UNL     1       9.254  -2.264  -3.503  1.00  0.00     0.193 C 
ATOM      8  O   UNL     1      10.054  -2.068  -2.576  1.00  0.00    -0.289 OA
BRANCH   7   9
ATOM      9  C   UNL     1       9.740  -2.593  -4.834  1.00  0.00     0.023 A 
ATOM     10  C   UNL     1       8.852  -2.638  -5.909  1.00  0.00     0.012 A 
ATOM     11  C   UNL     1      11.093  -2.863  -5.035  1.00  0.00     0.012 A 
ATOM     12  C   UNL     1       9.318  -2.953  -7.185  1.00  0.00     0.004 A 
ATOM     13  C   UNL     1      11.560  -3.178  -6.312  1.00  0.00     0.004 A 
ATOM     14  C   UNL     1      10.672  -3.223  -7.387  1.00  0.00    -0.051 A 
ATOM     15  C   UNL     1      11.170  -3.561  -8.751  1.00  0.00     0.044 C 
ENDBRANCH   7   9
ENDBRANCH   1   7
BRANCH   4  16
ATOM     16  N   UNL     1       5.548   0.152  -1.403  1.00  0.00     0.066 N 
ATOM     17  O   UNL     1       6.057   1.280  -1.612  1.00  0.00    -0.258 OA
ATOM     18  O   UNL     1       4.648  -0.026  -0.550  1.00  0.00    -0.258 OA
ENDBRANCH   4  16
BRANCH   5  19
ATOM     19  O   UNL     1       4.731  -3.984  -3.789  1.00  0.00    -0.504 OA
ATOM     20  H   UNL     1       4.008  -3.570  -4.290  1.00  0.00     0.293 HD
ENDBRANCH   5  19
BRANCH   6  21
ATOM     21  O   UNL     1       3.787  -1.843  -2.324  1.00  0.00    -0.500 OA
ATOM     22  H   UNL     1       3.659  -1.791  -1.364  1.00  0.00     0.294 HD
ENDBRANCH   6  21
TORSDOF 5
ENDMDL
MODEL 9
REMARK VINA RESULT:    -3.726      2.189      3.734
REMARK INTER + INTRA:          -5.356
REMARK INTER:                  -4.575
REMARK INTRA:                  -0.781
REMARK UNBOUND:                -0.759
REMARK SMILES Cc1ccc(C(=O)c2cc(O)c(O)c([N+](=O)[O-])c2)cc1
REMARK SMILES IDX 8 1 18 2 9 3 14 4 10 5 12 6 6 7 7 8 5 9 4 10 19 11 3 12
REMARK SMILES IDX 20 13 2 14 1 15 15 16 17 17 16 18 11 19 13 21
REMARK H PARENT 11 20 13 22
ROOT
ATOM      1  C   UNL     1       8.947  -1.994  -4.323  1.00  0.00     0.033 A 
ATOM      2  C   UNL     1       8.220  -3.152  -4.176  1.00  0.00     0.102 A 
ATOM      3  C   UNL     1       8.488  -0.767  -3.906  1.00  0.00     0.063 A 
ATOM      4  C   UNL     1       6.962  -3.079  -3.577  1.00  0.00     0.315 A 
ATOM      5  C   UNL     1       7.230  -0.694  -3.307  1.00  0.00     0.165 A 
ATOM      6  C   UNL     1       6.467  -1.851  -3.142  1.00  0.00     0.237 A 
ENDROOT
BRANCH   1   7
ATOM      7  C   UNL     1      10.293  -2.072  -4.965  1.00  0.00     0.193 C 
ATOM      8  O   UNL     1      10.366  -1.792  -6.171  1.00  0.00    -0.289 OA
BRANCH   7   9
ATOM      9  C   UNL     1      11.487  -2.455  -4.228  1.00  0.00     0.023 A 
ATOM     10  C   UNL     1      11.412  -2.699  -2.857  1.00  0.00     0.012 A 
ATOM     11  C   UNL     1      12.707  -2.580  -4.893  1.00  0.00     0.012 A 
ATOM     12  C   UNL     1      12.557  -3.068  -2.151  1.00  0.00     0.004 A 
ATOM     13  C   UNL     1      13.853  -2.949  -4.188  1.00  0.00     0.004 A 
ATOM     14  C   UNL     1      13.778  -3.193  -2.816  1.00  0.00    -0.051 A 
ATOM     15  C   UNL     1      15.002  -3.586  -2.061  1.00  0.00     0.044 C 
ENDBRANCH   7   9
ENDBRANCH   1   7
BRANCH   4  16
ATOM     16  N   UNL     1       6.199  -4.269  -3.418  1.00  0.00     0.066 N 
ATOM     17  O   UNL     1       6.801  -5.354  -3.230  1.00  0.00    -0.258 OA
ATOM     18  O   UNL     1       4.949  -4.198  -3.470  1.00  0.00    -0.258 OA
ENDBRANCH   4  16
BRANCH   5  19
ATOM     19  O   UNL     1       6.759   0.514  -2.886  1.00  0.00    -0.504 OA
ATOM     20  H   UNL     1       5.824   0.603  -3.135  1.00  0.00     0.293 HD
ENDBRANCH   5  19
BRANCH   6  21
ATOM     21  O   UNL     1       5.238  -1.766  -2.554  1.00  0.00    -0.500 OA
ATOM     22  H   UNL     1       4.951  -2.648  -2.270  1.00  0.00     0.294 HD
ENDBRANCH   6  21
TORSDOF 5
ENDMDL
