MODEL 1
REMARK VINA RESULT:    -6.429      0.000      0.000
REMARK INTER + INTRA:          -8.134
REMARK INTER:                  -7.556
REMARK INTRA:                  -0.578
REMARK UNBOUND:                -0.578
REMARK SMILES O=C(O)c1cc(-c2ccc(F)cc2F)ccc1O
REMARK SMILES IDX 6 1 5 2 15 3 4 4 17 5 16 6 7 7 13 8 12 9 8 10 10 11 9 12
REMARK SMILES IDX 14 13 11 14 2 15 1 16 3 17 18 19
REMARK H PARENT 3 18 18 20
ROOT
ATOM      1  C   UNL     1       6.836  -1.847  -3.440  1.00  0.00    -0.014 A 
ATOM      2  C   UNL     1       5.715  -2.534  -3.902  1.00  0.00     0.028 A 
ATOM      3  C   UNL     1       6.705  -0.903  -2.421  1.00  0.00     0.013 A 
ATOM      4  C   UNL     1       4.461  -2.277  -3.347  1.00  0.00     0.102 A 
ATOM      5  C   UNL     1       4.330  -1.333  -2.328  1.00  0.00     0.130 A 
ATOM      6  C   UNL     1       5.453  -0.646  -1.865  1.00  0.00     0.048 A 
ENDROOT
BRANCH   1   7
ATOM      7  C   UNL     1       8.137  -2.112  -4.017  1.00  0.00     0.018 A 
ATOM      8  C   UNL     1       8.988  -1.055  -4.341  1.00  0.00     0.133 A 
ATOM      9  C   UNL     1      10.240  -1.315  -4.898  1.00  0.00     0.079 A 
ATOM     10  C   UNL     1       8.539  -3.427  -4.247  1.00  0.00     0.015 A 
ATOM     11  C   UNL     1      10.642  -2.630  -5.129  1.00  0.00     0.126 A 
ATOM     12  C   UNL     1       9.791  -3.686  -4.803  1.00  0.00     0.040 A 
ATOM     13  F   UNL     1       8.615   0.215  -4.129  1.00  0.00    -0.206 F 
ATOM     14  F   UNL     1      11.845  -2.880  -5.662  1.00  0.00    -0.207 F 
ENDBRANCH   1   7
BRANCH   4  15
ATOM     15  C   UNL     1       3.301  -3.006  -3.843  1.00  0.00     0.339 C 
ATOM     16  O   UNL     1       2.234  -2.496  -4.191  1.00  0.00    -0.246 OA
BRANCH  15  17
ATOM     17  O   UNL     1       3.515  -4.349  -3.891  1.00  0.00    -0.478 OA
ATOM     18  H   UNL     1       4.144  -4.643  -3.200  1.00  0.00     0.297 HD
ENDBRANCH  15  17
ENDBRANCH   4  15
BRANCH   5  19
ATOM     19  O   UNL     1       3.114  -1.068  -1.771  1.00  0.00    -0.507 OA
ATOM     20  H   UNL     1       2.801  -1.860  -1.301  1.00  0.00     0.293 HD
ENDBRANCH   5  19
TORSDOF 4
ENDMDL
MODEL 2
REMARK VINA RESULT:    -6.422      1.240      2.715
REMARK INTER + INTRA:          -8.127
REMARK INTER:                  -7.586
REMARK INTRA:                  -0.541
REMARK UNBOUND:                -0.578
REMARK SMILES O=C(O)c1cc(-c2ccc(F)cc2F)ccc1O
REMARK SMILES IDX 6 1 5 2 15 3 4 4 17 5 16 6 7 7 13 8 12 9 8 10 10 11 9 12
REMARK SMILES IDX 14 13 11 14 2 15 1 16 3 17 18 19
REMARK H PARENT 3 18 18 20
ROOT
ATOM      1  C   UNL     1       6.786  -1.827  -3.444  1.00  0.00    -0.014 A 
ATOM      2  C   UNL     1       6.699  -0.878  -2.427  1.00  0.00     0.028 A 
ATOM      3  C   UNL     1       5.637  -2.481  -3.888  1.00  0.00     0.013 A 
ATOM      4  C   UNL     1       5.463  -0.582  -1.852  1.00  0.00     0.102 A 
ATOM      5  C   UNL     1       4.314  -1.236  -2.296  1.00  0.00     0.130 A 
ATOM      6  C   UNL     1       4.401  -2.186  -3.314  1.00  0.00     0.048 A 
ENDROOT
BRANCH   1   7
ATOM      7  C   UNL     1       8.068  -2.136  -4.040  1.00  0.00     0.018 A 
ATOM      8  C   UNL     1       8.952  -1.109  -4.371  1.00  0.00     0.133 A 
ATOM      9  C   UNL     1      10.187  -1.411  -4.946  1.00  0.00     0.079 A 
ATOM     10  C   UNL     1       8.420  -3.464  -4.282  1.00  0.00     0.015 A 
ATOM     11  C   UNL     1      10.538  -2.738  -5.188  1.00  0.00     0.126 A 
ATOM     12  C   UNL     1       9.655  -3.765  -4.855  1.00  0.00     0.040 A 
ATOM     13  F   UNL     1       8.629   0.173  -4.148  1.00  0.00    -0.206 F 
ATOM     14  F   UNL     1      11.724  -3.029  -5.739  1.00  0.00    -0.207 F 
ENDBRANCH   1   7
BRANCH   4  15
ATOM     15  C   UNL     1       5.394   0.413  -0.791  1.00  0.00     0.339 C 
ATOM     16  O   UNL     1       4.925   0.225   0.334  1.00  0.00    -0.246 OA
BRANCH  15  17
ATOM     17  O   UNL     1       5.915   1.612  -1.170  1.00  0.00    -0.478 OA
ATOM     18  H   UNL     1       5.375   2.363  -0.845  1.00  0.00     0.297 HD
ENDBRANCH  15  17
ENDBRANCH   4  15
BRANCH   5  19
ATOM     19  O   UNL     1       3.096  -0.961  -1.748  1.00  0.00    -0.507 OA
ATOM     20  H   UNL     1       2.839  -0.053  -1.986  1.00  0.00     0.293 HD
ENDBRANCH   5  19
TORSDOF 4
ENDMDL
MODEL 3
REMARK VINA RESULT:    -6.421      1.122      1.604
REMARK INTER + INTRA:          -8.126
REMARK INTER:                  -7.547
REMARK INTRA:                  -0.579
REMARK UNBOUND:                -0.578
REMARK SMILES O=C(O)c1cc(-c2ccc(F)cc2F)ccc1O
REMARK SMILES IDX 6 1 5 2 15 3 4 4 17 5 16 6 7 7 13 8 12 9 8 10 10 11 9 12
REMARK SMILES IDX 14 13 11 14 2 15 1 16 3 17 18 19
REMARK H PARENT 3 18 18 20
ROOT
ATOM      1  C   UNL     1       6.856  -1.874  -3.417  1.00  0.00    -0.014 A 
ATOM      2  C   UNL     1       5.731  -2.552  -3.884  1.00  0.00     0.028 A 
ATOM      3  C   UNL     1       6.729  -0.929  -2.399  1.00  0.00     0.013 A 
ATOM      4  C   UNL     1       4.477  -2.287  -3.332  1.00  0.00     0.102 A 
ATOM      5  C   UNL     1       4.350  -1.342  -2.314  1.00  0.00     0.130 A 
ATOM      6  C   UNL     1       5.476  -0.663  -1.847  1.00  0.00     0.048 A 
ENDROOT
BRANCH   1   7
ATOM      7  C   UNL     1       8.157  -2.148  -3.989  1.00  0.00     0.018 A 
ATOM      8  C   UNL     1       8.550  -3.464  -4.237  1.00  0.00     0.133 A 
ATOM      9  C   UNL     1       9.805  -3.724  -4.789  1.00  0.00     0.079 A 
ATOM     10  C   UNL     1       9.017  -1.094  -4.295  1.00  0.00     0.015 A 
ATOM     11  C   UNL     1      10.665  -2.669  -5.093  1.00  0.00     0.126 A 
ATOM     12  C   UNL     1      10.271  -1.354  -4.846  1.00  0.00     0.040 A 
ATOM     13  F   UNL     1       7.736  -4.489  -3.947  1.00  0.00    -0.206 F 
ATOM     14  F   UNL     1      11.870  -2.918  -5.622  1.00  0.00    -0.207 F 
ENDBRANCH   1   7
BRANCH   4  15
ATOM     15  C   UNL     1       3.315  -3.006  -3.833  1.00  0.00     0.339 C 
ATOM     16  O   UNL     1       2.250  -2.489  -4.180  1.00  0.00    -0.246 OA
BRANCH  15  17
ATOM     17  O   UNL     1       3.521  -4.351  -3.887  1.00  0.00    -0.478 OA
ATOM     18  H   UNL     1       3.882  -4.630  -4.754  1.00  0.00     0.297 HD
ENDBRANCH  15  17
ENDBRANCH   4  15
BRANCH   5  19
ATOM     19  O   UNL     1       3.134  -1.068  -1.762  1.00  0.00    -0.507 OA
ATOM     20  H   UNL     1       2.803  -0.228  -2.124  1.00  0.00     0.293 HD
ENDBRANCH   5  19
TORSDOF 4
ENDMDL
MODEL 4
REMARK VINA RESULT:    -6.416      1.683      3.161
REMARK INTER + INTRA:          -8.119
REMARK INTER:                  -7.586
REMARK INTRA:                  -0.534
REMARK UNBOUND:                -0.578
REMARK SMILES O=C(O)c1cc(-c2ccc(F)cc2F)ccc1O
REMARK SMILES IDX 6 1 5 2 15 3 4 4 17 5 16 6 7 7 13 8 12 9 8 10 10 11 9 12
REMARK SMILES IDX 14 13 11 14 2 15 1 16 3 17 18 19
REMARK H PARENT 3 18 18 20
ROOT
ATOM      1  C   UNL     1       6.774  -1.864  -3.409  1.00  0.00    -0.014 A 
ATOM      2  C   UNL     1       6.693  -0.905  -2.401  1.00  0.00     0.028 A 
ATOM      3  C   UNL     1       5.621  -2.514  -3.849  1.00  0.00     0.013 A 
ATOM      4  C   UNL     1       5.457  -0.594  -1.832  1.00  0.00     0.102 A 
ATOM      5  C   UNL     1       4.304  -1.243  -2.272  1.00  0.00     0.130 A 
ATOM      6  C   UNL     1       4.386  -2.204  -3.281  1.00  0.00     0.048 A 
ENDROOT
BRANCH   1   7
ATOM      7  C   UNL     1       8.056  -2.188  -3.999  1.00  0.00     0.018 A 
ATOM      8  C   UNL     1       8.409  -3.520  -4.218  1.00  0.00     0.133 A 
ATOM      9  C   UNL     1       9.645  -3.828  -4.787  1.00  0.00     0.079 A 
ATOM     10  C   UNL     1       8.937  -1.166  -4.349  1.00  0.00     0.015 A 
ATOM     11  C   UNL     1      10.527  -2.806  -5.136  1.00  0.00     0.126 A 
ATOM     12  C   UNL     1      10.172  -1.474  -4.917  1.00  0.00     0.040 A 
ATOM     13  F   UNL     1       7.574  -4.515  -3.885  1.00  0.00    -0.206 F 
ATOM     14  F   UNL     1      11.714  -3.100  -5.682  1.00  0.00    -0.207 F 
ENDBRANCH   1   7
BRANCH   4  15
ATOM     15  C   UNL     1       5.393   0.412  -0.781  1.00  0.00     0.339 C 
ATOM     16  O   UNL     1       4.927   0.236   0.348  1.00  0.00    -0.246 OA
BRANCH  15  17
ATOM     17  O   UNL     1       5.914   1.606  -1.173  1.00  0.00    -0.478 OA
ATOM     18  H   UNL     1       6.872   1.538  -1.373  1.00  0.00     0.297 HD
ENDBRANCH  15  17
ENDBRANCH   4  15
BRANCH   5  19
ATOM     19  O   UNL     1       3.087  -0.953  -1.730  1.00  0.00    -0.507 OA
ATOM     20  H   UNL     1       2.883  -0.016  -1.892  1.00  0.00     0.293 HD
ENDBRANCH   5  19
TORSDOF 4
ENDMDL
MODEL 5
REMARK VINA RESULT:    -5.549      4.190      6.492
REMARK INTER + INTRA:          -7.100
REMARK INTER:                  -6.034
REMARK INTRA:                  -1.066
REMARK UNBOUND:                -0.578
REMARK SMILES O=C(O)c1cc(-c2ccc(F)cc2F)ccc1O
REMARK SMILES IDX 6 1 5 2 15 3 4 4 17 5 16 6 7 7 13 8 12 9 8 10 10 11 9 12
REMARK SMILES IDX 14 13 11 14 2 15 1 16 3 17 18 19
REMARK H PARENT 3 18 18 20
ROOT
ATOM      1  C   UNL     1       9.228  -2.415  -4.501  1.00  0.00    -0.014 A 
ATOM      2  C   UNL     1       9.344  -2.705  -5.860  1.00  0.00     0.028 A 
ATOM      3  C   UNL     1      10.364  -2.397  -3.692  1.00  0.00     0.013 A 
ATOM      4  C   UNL     1      10.596  -2.978  -6.411  1.00  0.00     0.102 A 
ATOM      5  C   UNL     1      11.732  -2.961  -5.602  1.00  0.00     0.130 A 
ATOM      6  C   UNL     1      11.616  -2.670  -4.242  1.00  0.00     0.048 A 
ENDROOT
BRANCH   1   7
ATOM      7  C   UNL     1       7.929  -2.133  -3.929  1.00  0.00     0.018 A 
ATOM      8  C   UNL     1       7.082  -3.180  -3.564  1.00  0.00     0.133 A 
ATOM      9  C   UNL     1       5.831  -2.904  -3.013  1.00  0.00     0.079 A 
ATOM     10  C   UNL     1       7.526  -0.811  -3.741  1.00  0.00     0.015 A 
ATOM     11  C   UNL     1       5.427  -1.582  -2.826  1.00  0.00     0.126 A 
ATOM     12  C   UNL     1       6.275  -0.536  -3.190  1.00  0.00     0.040 A 
ATOM     13  F   UNL     1       7.454  -4.456  -3.740  1.00  0.00    -0.206 F 
ATOM     14  F   UNL     1       4.226  -1.316  -2.297  1.00  0.00    -0.207 F 
ENDBRANCH   1   7
BRANCH   4  15
ATOM     15  C   UNL     1      10.696  -3.279  -7.833  1.00  0.00     0.339 C 
ATOM     16  O   UNL     1      11.748  -3.392  -8.466  1.00  0.00    -0.246 OA
BRANCH  15  17
ATOM     17  O   UNL     1       9.477  -3.431  -8.417  1.00  0.00    -0.478 OA
ATOM     18  H   UNL     1       9.329  -4.352  -8.719  1.00  0.00     0.297 HD
ENDBRANCH  15  17
ENDBRANCH   4  15
BRANCH   5  19
ATOM     19  O   UNL     1      12.965  -3.224  -6.121  1.00  0.00    -0.507 OA
ATOM     20  H   UNL     1      12.903  -3.247  -7.092  1.00  0.00     0.293 HD
ENDBRANCH   5  19
TORSDOF 4
ENDMDL
MODEL 6
REMARK VINA RESULT:    -5.499      4.515      6.888
REMARK INTER + INTRA:          -7.041
REMARK INTER:                  -5.987
REMARK INTRA:                  -1.054
REMARK UNBOUND:                -0.578
REMARK SMILES O=C(O)c1cc(-c2ccc(F)cc2F)ccc1O
REMARK SMILES IDX 6 1 5 2 15 3 4 4 17 5 16 6 7 7 13 8 12 9 8 10 10 11 9 12
REMARK SMILES IDX 14 13 11 14 2 15 1 16 3 17 18 19
REMARK H PARENT 3 18 18 20
ROOT
ATOM      1  C   UNL     1       9.198  -2.420  -4.510  1.00  0.00    -0.014 A 
ATOM      2  C   UNL     1      10.348  -2.356  -3.724  1.00  0.00     0.028 A 
ATOM      3  C   UNL     1       9.292  -2.763  -5.858  1.00  0.00     0.013 A 
ATOM      4  C   UNL     1      11.594  -2.634  -4.287  1.00  0.00     0.102 A 
ATOM      5  C   UNL     1      11.688  -2.977  -5.635  1.00  0.00     0.130 A 
ATOM      6  C   UNL     1      10.537  -3.042  -6.421  1.00  0.00     0.048 A 
ENDROOT
BRANCH   1   7
ATOM      7  C   UNL     1       7.905  -2.130  -3.927  1.00  0.00     0.018 A 
ATOM      8  C   UNL     1       7.060  -3.171  -3.542  1.00  0.00     0.133 A 
ATOM      9  C   UNL     1       5.815  -2.887  -2.981  1.00  0.00     0.079 A 
ATOM     10  C   UNL     1       7.505  -0.805  -3.749  1.00  0.00     0.015 A 
ATOM     11  C   UNL     1       5.415  -1.563  -2.805  1.00  0.00     0.126 A 
ATOM     12  C   UNL     1       6.261  -0.522  -3.188  1.00  0.00     0.040 A 
ATOM     13  F   UNL     1       7.428  -4.450  -3.709  1.00  0.00    -0.206 F 
ATOM     14  F   UNL     1       4.220  -1.290  -2.266  1.00  0.00    -0.207 F 
ENDBRANCH   1   7
BRANCH   4  15
ATOM     15  C   UNL     1      12.783  -2.562  -3.449  1.00  0.00     0.339 C 
ATOM     16  O   UNL     1      13.942  -2.476  -3.861  1.00  0.00    -0.246 OA
BRANCH  15  17
ATOM     17  O   UNL     1      12.485  -2.597  -2.122  1.00  0.00    -0.478 OA
ATOM     18  H   UNL     1      12.369  -1.698  -1.750  1.00  0.00     0.297 HD
ENDBRANCH  15  17
ENDBRANCH   4  15
BRANCH   5  19
ATOM     19  O   UNL     1      12.896  -3.254  -6.204  1.00  0.00    -0.507 OA
ATOM     20  H   UNL     1      12.999  -4.219  -6.276  1.00  0.00     0.293 HD
ENDBRANCH   5  19
TORSDOF 4
ENDMDL
MODEL 7
REMARK VINA RESULT:    -5.417      1.001      1.051
REMARK INTER + INTRA:          -6.945
REMARK INTER:                  -6.432
REMARK INTRA:                  -0.513
REMARK UNBOUND:                -0.578
REMARK SMILES O=C(O)c1cc(-c2ccc(F)cc2F)ccc1O
REMARK SMILES IDX 6 1 5 2 15 3 4 4 17 5 16 6 7 7 13 8 12 9 8 10 10 11 9 12
REMARK SMILES IDX 14 13 11 14 2 15 1 16 3 17 18 19
REMARK H PARENT 3 18 18 20
ROOT
ATOM      1  C   UNL     1       6.991  -1.902  -3.602  1.00  0.00    -0.014 A 
ATOM      2  C   UNL     1       5.858  -2.619  -3.985  1.00  0.00     0.028 A 
ATOM      3  C   UNL     1       6.885  -0.886  -2.652  1.00  0.00     0.013 A 
ATOM      4  C   UNL     1       4.618  -2.320  -3.419  1.00  0.00     0.102 A 
ATOM      5  C   UNL     1       4.512  -1.304  -2.469  1.00  0.00     0.130 A 
ATOM      6  C   UNL     1       5.647  -0.587  -2.085  1.00  0.00     0.048 A 
ENDROOT
BRANCH   1   7
ATOM      7  C   UNL     1       8.276  -2.211  -4.189  1.00  0.00     0.018 A 
ATOM      8  C   UNL     1       9.427  -2.205  -3.400  1.00  0.00     0.133 A 
ATOM      9  C   UNL     1      10.665  -2.504  -3.971  1.00  0.00     0.079 A 
ATOM     10  C   UNL     1       8.363  -2.517  -5.547  1.00  0.00     0.015 A 
ATOM     11  C   UNL     1      10.752  -2.808  -5.329  1.00  0.00     0.126 A 
ATOM     12  C   UNL     1       9.601  -2.815  -6.117  1.00  0.00     0.040 A 
ATOM     13  F   UNL     1       9.361  -1.911  -2.094  1.00  0.00    -0.206 F 
ATOM     14  F   UNL     1      11.939  -3.094  -5.877  1.00  0.00    -0.207 F 
ENDBRANCH   1   7
BRANCH   4  15
ATOM     15  C   UNL     1       3.446  -3.080  -3.833  1.00  0.00     0.339 C 
ATOM     16  O   UNL     1       2.360  -2.595  -4.160  1.00  0.00    -0.246 OA
BRANCH  15  17
ATOM     17  O   UNL     1       3.671  -4.422  -3.826  1.00  0.00    -0.478 OA
ATOM     18  H   UNL     1       4.135  -4.710  -3.012  1.00  0.00     0.297 HD
ENDBRANCH  15  17
ENDBRANCH   4  15
BRANCH   5  19
ATOM     19  O   UNL     1       3.311  -0.996  -1.904  1.00  0.00    -0.507 OA
ATOM     20  H   UNL     1       2.629  -1.587  -2.267  1.00  0.00     0.293 HD
ENDBRANCH   5  19
TORSDOF 4
ENDMDL
MODEL 8
REMARK VINA RESULT:    -3.774      5.892      8.306
REMARK INTER + INTRA:          -5.014
REMARK INTER:                  -4.487
REMARK INTRA:                  -0.526
REMARK UNBOUND:                -0.578
REMARK SMILES O=C(O)c1cc(-c2ccc(F)cc2F)ccc1O
REMARK SMILES IDX 6 1 5 2 15 3 4 4 17 5 16 6 7 7 13 8 12 9 8 10 10 11 9 12
REMARK SMILES IDX 14 13 11 14 2 15 1 16 3 17 18 19
REMARK H PARENT 3 18 18 20
ROOT
ATOM      1  C   UNL     1      11.107  -3.195  -7.549  1.00  0.00    -0.014 A 
ATOM      2  C   UNL     1      12.296  -3.919  -7.614  1.00  0.00     0.028 A 
ATOM      3  C   UNL     1      10.504  -2.737  -8.720  1.00  0.00     0.013 A 
ATOM      4  C   UNL     1      12.885  -4.185  -8.851  1.00  0.00     0.102 A 
ATOM      5  C   UNL     1      12.282  -3.727 -10.022  1.00  0.00     0.130 A 
ATOM      6  C   UNL     1      11.091  -3.002  -9.957  1.00  0.00     0.048 A 
ENDROOT
BRANCH   1   7
ATOM      7  C   UNL     1      10.497  -2.918  -6.266  1.00  0.00     0.018 A 
ATOM      8  C   UNL     1      11.295  -2.716  -5.140  1.00  0.00     0.133 A 
ATOM      9  C   UNL     1      10.703  -2.449  -3.905  1.00  0.00     0.079 A 
ATOM     10  C   UNL     1       9.108  -2.851  -6.158  1.00  0.00     0.015 A 
ATOM     11  C   UNL     1       9.314  -2.383  -3.797  1.00  0.00     0.126 A 
ATOM     12  C   UNL     1       8.517  -2.583  -4.924  1.00  0.00     0.040 A 
ATOM     13  F   UNL     1      12.631  -2.780  -5.226  1.00  0.00    -0.206 F 
ATOM     14  F   UNL     1       8.745  -2.126  -2.612  1.00  0.00    -0.207 F 
ENDBRANCH   1   7
BRANCH   4  15
ATOM     15  C   UNL     1      14.127  -4.944  -8.897  1.00  0.00     0.339 C 
ATOM     16  O   UNL     1      14.732  -5.260  -9.925  1.00  0.00    -0.246 OA
BRANCH  15  17
ATOM     17  O   UNL     1      14.575  -5.282  -7.658  1.00  0.00    -0.478 OA
ATOM     18  H   UNL     1      14.161  -4.733  -6.958  1.00  0.00     0.297 HD
ENDBRANCH  15  17
ENDBRANCH   4  15
BRANCH   5  19
ATOM     19  O   UNL     1      12.840  -3.977 -11.241  1.00  0.00    -0.507 OA
ATOM     20  H   UNL     1      12.322  -3.521 -11.926  1.00  0.00     0.293 HD
ENDBRANCH   5  19
TORSDOF 4
ENDMDL
