MODEL 1
REMARK VINA RESULT:    -5.440      0.000      0.000
REMARK INTER + INTRA:          -7.594
REMARK INTER:                  -6.712
REMARK INTRA:                  -0.882
REMARK UNBOUND:                -0.882
REMARK SMILES Cc1ccc(C(=O)c2cc(O)c(O)c([N+](=O)[O-])c2)cc1
REMARK SMILES IDX 8 1 18 2 9 3 14 4 10 5 12 6 6 7 7 8 5 9 4 10 19 11 3 12
REMARK SMILES IDX 20 13 2 14 1 15 15 16 17 17 16 18 11 19 13 21
REMARK H PARENT 11 20 13 22
ROOT
ATOM      1  C   UNL     1      -8.581  -0.916   0.370  1.00  0.00     0.033 A 
ATOM      2  C   UNL     1      -8.098  -2.132   0.796  1.00  0.00     0.102 A 
ATOM      3  C   UNL     1      -7.764   0.101  -0.064  1.00  0.00     0.063 A 
ATOM      4  C   UNL     1      -6.720  -2.342   0.786  1.00  0.00     0.315 A 
ATOM      5  C   UNL     1      -6.385  -0.109  -0.073  1.00  0.00     0.165 A 
ATOM      6  C   UNL     1      -5.862  -1.332   0.352  1.00  0.00     0.237 A 
ENDROOT
BRANCH   1   7
ATOM      7  C   UNL     1     -10.058  -0.690   0.380  1.00  0.00     0.193 C 
ATOM      8  O   UNL     1     -10.543  -0.057  -0.570  1.00  0.00    -0.289 OA
BRANCH   7   9
ATOM      9  C   UNL     1     -10.914  -1.181   1.447  1.00  0.00     0.023 A 
ATOM     10  C   UNL     1     -11.090  -0.423   2.605  1.00  0.00     0.012 A 
ATOM     11  C   UNL     1     -11.561  -2.410   1.314  1.00  0.00     0.012 A 
ATOM     12  C   UNL     1     -11.911  -0.895   3.629  1.00  0.00     0.004 A 
ATOM     13  C   UNL     1     -12.383  -2.882   2.338  1.00  0.00     0.004 A 
ATOM     14  C   UNL     1     -12.559  -2.124   3.496  1.00  0.00    -0.051 A 
ATOM     15  C   UNL     1     -13.436  -2.627   4.591  1.00  0.00     0.044 C 
ENDBRANCH   7   9
ENDBRANCH   1   7
BRANCH   4  16
ATOM     16  N   UNL     1      -6.206  -3.594   1.223  1.00  0.00     0.066 N 
ATOM     17  O   UNL     1      -6.901  -4.626   1.058  1.00  0.00    -0.258 OA
ATOM     18  O   UNL     1      -5.074  -3.631   1.760  1.00  0.00    -0.258 OA
ENDBRANCH   4  16
BRANCH   5  19
ATOM     19  O   UNL     1      -5.559   0.887  -0.500  1.00  0.00    -0.504 OA
ATOM     20  H   UNL     1      -5.160   1.330   0.267  1.00  0.00     0.293 HD
ENDBRANCH   5  19
BRANCH   6  21
ATOM     21  O   UNL     1      -4.512  -1.526   0.338  1.00  0.00    -0.500 OA
ATOM     22  H   UNL     1      -4.146  -1.339   1.217  1.00  0.00     0.294 HD
ENDBRANCH   6  21
TORSDOF 5
ENDMDL
MODEL 2
REMARK VINA RESULT:    -5.389      2.059      3.517
REMARK INTER + INTRA:          -7.531
REMARK INTER:                  -6.635
REMARK INTRA:                  -0.896
REMARK UNBOUND:                -0.882
REMARK SMILES Cc1ccc(C(=O)c2cc(O)c(O)c([N+](=O)[O-])c2)cc1
REMARK SMILES IDX 8 1 18 2 9 3 14 4 10 5 12 6 6 7 7 8 5 9 4 10 19 11 3 12
REMARK SMILES IDX 20 13 2 14 1 15 15 16 17 17 16 18 11 19 13 21
REMARK H PARENT 11 20 13 22
ROOT
ATOM      1  C   UNL     1      -8.184  -1.687   2.052  1.00  0.00     0.033 A 
ATOM      2  C   UNL     1      -7.851  -0.465   1.517  1.00  0.00     0.102 A 
ATOM      3  C   UNL     1      -7.386  -2.799   1.927  1.00  0.00     0.063 A 
ATOM      4  C   UNL     1      -6.649  -0.348   0.818  1.00  0.00     0.315 A 
ATOM      5  C   UNL     1      -6.184  -2.683   1.227  1.00  0.00     0.165 A 
ATOM      6  C   UNL     1      -5.816  -1.456   0.673  1.00  0.00     0.237 A 
ENDROOT
BRANCH   1   7
ATOM      7  C   UNL     1      -9.471  -1.813   2.800  1.00  0.00     0.193 C 
ATOM      8  O   UNL     1      -9.444  -2.420   3.881  1.00  0.00    -0.289 OA
BRANCH   7   9
ATOM      9  C   UNL     1     -10.719  -1.255   2.304  1.00  0.00     0.023 A 
ATOM     10  C   UNL     1     -11.506  -1.988   1.415  1.00  0.00     0.012 A 
ATOM     11  C   UNL     1     -11.130   0.012   2.718  1.00  0.00     0.012 A 
ATOM     12  C   UNL     1     -12.703  -1.452   0.940  1.00  0.00     0.004 A 
ATOM     13  C   UNL     1     -12.328   0.548   2.243  1.00  0.00     0.004 A 
ATOM     14  C   UNL     1     -13.114  -0.185   1.353  1.00  0.00    -0.051 A 
ATOM     15  C   UNL     1     -14.393   0.387   0.844  1.00  0.00     0.044 C 
ENDBRANCH   7   9
ENDBRANCH   1   7
BRANCH   4  16
ATOM     16  N   UNL     1      -6.291   0.910   0.260  1.00  0.00     0.066 N 
ATOM     17  O   UNL     1      -5.710   0.936  -0.852  1.00  0.00    -0.258 OA
ATOM     18  O   UNL     1      -6.567   1.955   0.894  1.00  0.00    -0.258 OA
ENDBRANCH   4  16
BRANCH   5  19
ATOM     19  O   UNL     1      -5.379  -3.774   1.094  1.00  0.00    -0.504 OA
ATOM     20  H   UNL     1      -5.676  -4.473   1.700  1.00  0.00     0.293 HD
ENDBRANCH   5  19
BRANCH   6  21
ATOM     21  O   UNL     1      -4.638  -1.354  -0.008  1.00  0.00    -0.500 OA
ATOM     22  H   UNL     1      -4.209  -0.511   0.205  1.00  0.00     0.294 HD
ENDBRANCH   6  21
TORSDOF 5
ENDMDL
MODEL 3
REMARK VINA RESULT:    -5.223      1.797      1.956
REMARK INTER + INTRA:          -7.326
REMARK INTER:                  -6.870
REMARK INTRA:                  -0.456
REMARK UNBOUND:                -0.882
REMARK SMILES Cc1ccc(C(=O)c2cc(O)c(O)c([N+](=O)[O-])c2)cc1
REMARK SMILES IDX 8 1 18 2 9 3 14 4 10 5 12 6 6 7 7 8 5 9 4 10 19 11 3 12
REMARK SMILES IDX 20 13 2 14 1 15 15 16 17 17 16 18 11 19 13 21
REMARK H PARENT 11 20 13 22
ROOT
ATOM      1  C   UNL     1      -7.497  -0.269   1.788  1.00  0.00     0.033 A 
ATOM      2  C   UNL     1      -7.059  -1.565   1.926  1.00  0.00     0.102 A 
ATOM      3  C   UNL     1      -6.998   0.591   0.838  1.00  0.00     0.063 A 
ATOM      4  C   UNL     1      -6.066  -2.029   1.065  1.00  0.00     0.315 A 
ATOM      5  C   UNL     1      -6.003   0.127  -0.023  1.00  0.00     0.165 A 
ATOM      6  C   UNL     1      -5.537  -1.184   0.090  1.00  0.00     0.237 A 
ENDROOT
BRANCH   1   7
ATOM      7  C   UNL     1      -8.562   0.229   2.711  1.00  0.00     0.193 C 
ATOM      8  O   UNL     1      -8.197   0.874   3.705  1.00  0.00    -0.289 OA
BRANCH   7   9
ATOM      9  C   UNL     1      -9.975  -0.019   2.476  1.00  0.00     0.023 A 
ATOM     10  C   UNL     1     -10.932   0.856   2.991  1.00  0.00     0.012 A 
ATOM     11  C   UNL     1     -10.375  -1.132   1.736  1.00  0.00     0.012 A 
ATOM     12  C   UNL     1     -12.287   0.618   2.766  1.00  0.00     0.004 A 
ATOM     13  C   UNL     1     -11.731  -1.370   1.510  1.00  0.00     0.004 A 
ATOM     14  C   UNL     1     -12.688  -0.495   2.025  1.00  0.00    -0.051 A 
ATOM     15  C   UNL     1     -14.137  -0.749   1.786  1.00  0.00     0.044 C 
ENDBRANCH   7   9
ENDBRANCH   1   7
BRANCH   4  16
ATOM     16  N   UNL     1      -5.603  -3.367   1.195  1.00  0.00     0.066 N 
ATOM     17  O   UNL     1      -6.250  -4.289   0.641  1.00  0.00    -0.258 OA
ATOM     18  O   UNL     1      -4.563  -3.587   1.859  1.00  0.00    -0.258 OA
ENDBRANCH   4  16
BRANCH   5  19
ATOM     19  O   UNL     1      -5.496   0.964  -0.971  1.00  0.00    -0.504 OA
ATOM     20  H   UNL     1      -5.468   0.507  -1.828  1.00  0.00     0.293 HD
ENDBRANCH   5  19
BRANCH   6  21
ATOM     21  O   UNL     1      -4.564  -1.626  -0.759  1.00  0.00    -0.500 OA
ATOM     22  H   UNL     1      -4.382  -0.947  -1.428  1.00  0.00     0.294 HD
ENDBRANCH   6  21
TORSDOF 5
ENDMDL
MODEL 4
REMARK VINA RESULT:    -5.112      1.626      2.929
REMARK INTER + INTRA:          -7.189
REMARK INTER:                  -6.589
REMARK INTRA:                  -0.600
REMARK UNBOUND:                -0.882
REMARK SMILES Cc1ccc(C(=O)c2cc(O)c(O)c([N+](=O)[O-])c2)cc1
REMARK SMILES IDX 8 1 18 2 9 3 14 4 10 5 12 6 6 7 7 8 5 9 4 10 19 11 3 12
REMARK SMILES IDX 20 13 2 14 1 15 15 16 17 17 16 18 11 19 13 21
REMARK H PARENT 11 20 13 22
ROOT
ATOM      1  C   UNL     1      -8.044  -2.353   0.290  1.00  0.00     0.033 A 
ATOM      2  C   UNL     1      -7.707  -1.079  -0.105  1.00  0.00     0.102 A 
ATOM      3  C   UNL     1      -7.148  -3.214   0.876  1.00  0.00     0.063 A 
ATOM      4  C   UNL     1      -6.399  -0.642   0.099  1.00  0.00     0.315 A 
ATOM      5  C   UNL     1      -5.838  -2.777   1.080  1.00  0.00     0.165 A 
ATOM      6  C   UNL     1      -5.464  -1.490   0.692  1.00  0.00     0.237 A 
ENDROOT
BRANCH   1   7
ATOM      7  C   UNL     1      -9.446  -2.822   0.071  1.00  0.00     0.193 C 
ATOM      8  O   UNL     1      -9.663  -3.515  -0.934  1.00  0.00    -0.289 OA
BRANCH   7   9
ATOM      9  C   UNL     1     -10.529  -2.493   0.983  1.00  0.00     0.023 A 
ATOM     10  C   UNL     1     -10.437  -1.364   1.798  1.00  0.00     0.012 A 
ATOM     11  C   UNL     1     -11.661  -3.306   1.044  1.00  0.00     0.012 A 
ATOM     12  C   UNL     1     -11.477  -1.050   2.673  1.00  0.00     0.004 A 
ATOM     13  C   UNL     1     -12.701  -2.992   1.919  1.00  0.00     0.004 A 
ATOM     14  C   UNL     1     -12.609  -1.863   2.734  1.00  0.00    -0.051 A 
ATOM     15  C   UNL     1     -13.719  -1.526   3.670  1.00  0.00     0.044 C 
ENDBRANCH   7   9
ENDBRANCH   1   7
BRANCH   4  16
ATOM     16  N   UNL     1      -6.035   0.673  -0.304  1.00  0.00     0.066 N 
ATOM     17  O   UNL     1      -6.568   1.652   0.272  1.00  0.00    -0.258 OA
ATOM     18  O   UNL     1      -5.194   0.814  -1.221  1.00  0.00    -0.258 OA
ENDBRANCH   4  16
BRANCH   5  19
ATOM     19  O   UNL     1      -4.936  -3.617   1.661  1.00  0.00    -0.504 OA
ATOM     20  H   UNL     1      -4.038  -3.368   1.388  1.00  0.00     0.293 HD
ENDBRANCH   5  19
BRANCH   6  21
ATOM     21  O   UNL     1      -4.181  -1.074   0.897  1.00  0.00    -0.500 OA
ATOM     22  H   UNL     1      -4.139  -0.529   1.698  1.00  0.00     0.294 HD
ENDBRANCH   6  21
TORSDOF 5
ENDMDL
MODEL 5
REMARK VINA RESULT:    -4.914      1.154      2.830
REMARK INTER + INTRA:          -6.945
REMARK INTER:                  -6.277
REMARK INTRA:                  -0.669
REMARK UNBOUND:                -0.882
REMARK SMILES Cc1ccc(C(=O)c2cc(O)c(O)c([N+](=O)[O-])c2)cc1
REMARK SMILES IDX 8 1 18 2 9 3 14 4 10 5 12 6 6 7 7 8 5 9 4 10 19 11 3 12
REMARK SMILES IDX 20 13 2 14 1 15 15 16 17 17 16 18 11 19 13 21
REMARK H PARENT 11 20 13 22
ROOT
ATOM      1  C   UNL     1      -8.182  -1.749   0.813  1.00  0.00     0.033 A 
ATOM      2  C   UNL     1      -7.015  -1.176   0.362  1.00  0.00     0.102 A 
ATOM      3  C   UNL     1      -8.215  -2.954   1.474  1.00  0.00     0.063 A 
ATOM      4  C   UNL     1      -5.813  -1.847   0.586  1.00  0.00     0.315 A 
ATOM      5  C   UNL     1      -7.012  -3.625   1.697  1.00  0.00     0.165 A 
ATOM      6  C   UNL     1      -5.811  -3.071   1.253  1.00  0.00     0.237 A 
ENDROOT
BRANCH   1   7
ATOM      7  C   UNL     1      -9.470  -1.031   0.573  1.00  0.00     0.193 C 
ATOM      8  O   UNL     1      -9.502  -0.217  -0.363  1.00  0.00    -0.289 OA
BRANCH   7   9
ATOM      9  C   UNL     1     -10.653  -1.258   1.387  1.00  0.00     0.023 A 
ATOM     10  C   UNL     1     -11.471  -2.360   1.136  1.00  0.00     0.012 A 
ATOM     11  C   UNL     1     -10.969  -0.376   2.420  1.00  0.00     0.012 A 
ATOM     12  C   UNL     1     -12.606  -2.578   1.918  1.00  0.00     0.004 A 
ATOM     13  C   UNL     1     -12.104  -0.594   3.202  1.00  0.00     0.004 A 
ATOM     14  C   UNL     1     -12.922  -1.695   2.951  1.00  0.00    -0.051 A 
ATOM     15  C   UNL     1     -14.136  -1.928   3.785  1.00  0.00     0.044 C 
ENDBRANCH   7   9
ENDBRANCH   1   7
BRANCH   4  16
ATOM     16  N   UNL     1      -4.599  -1.267   0.126  1.00  0.00     0.066 N 
ATOM     17  O   UNL     1      -3.525  -1.576   0.697  1.00  0.00    -0.258 OA
ATOM     18  O   UNL     1      -4.637  -0.465  -0.836  1.00  0.00    -0.258 OA
ENDBRANCH   4  16
BRANCH   5  19
ATOM     19  O   UNL     1      -7.025  -4.821   2.351  1.00  0.00    -0.504 OA
ATOM     20  H   UNL     1      -7.914  -4.988   2.705  1.00  0.00     0.293 HD
ENDBRANCH   5  19
BRANCH   6  21
ATOM     21  O   UNL     1      -4.641  -3.737   1.479  1.00  0.00    -0.500 OA
ATOM     22  H   UNL     1      -4.743  -4.669   1.230  1.00  0.00     0.294 HD
ENDBRANCH   6  21
TORSDOF 5
ENDMDL
MODEL 6
REMARK VINA RESULT:    -4.643      3.798      6.634
REMARK INTER + INTRA:          -6.610
REMARK INTER:                  -5.656
REMARK INTRA:                  -0.954
REMARK UNBOUND:                -0.882
REMARK SMILES Cc1ccc(C(=O)c2cc(O)c(O)c([N+](=O)[O-])c2)cc1
REMARK SMILES IDX 8 1 18 2 9 3 14 4 10 5 12 6 6 7 7 8 5 9 4 10 19 11 3 12
REMARK SMILES IDX 20 13 2 14 1 15 15 16 17 17 16 18 11 19 13 21
REMARK H PARENT 11 20 13 22
ROOT
ATOM      1  C   UNL     1     -11.667  -0.390   2.440  1.00  0.00     0.033 A 
ATOM      2  C   UNL     1     -12.179  -1.323   3.312  1.00  0.00     0.102 A 
ATOM      3  C   UNL     1     -12.455   0.351   1.592  1.00  0.00     0.063 A 
ATOM      4  C   UNL     1     -13.559  -1.524   3.337  1.00  0.00     0.315 A 
ATOM      5  C   UNL     1     -13.835   0.149   1.617  1.00  0.00     0.165 A 
ATOM      6  C   UNL     1     -14.388  -0.789   2.490  1.00  0.00     0.237 A 
ENDROOT
BRANCH   1   7
ATOM      7  C   UNL     1     -10.189  -0.175   2.412  1.00  0.00     0.193 C 
ATOM      8  O   UNL     1      -9.772   0.949   2.733  1.00  0.00    -0.289 OA
BRANCH   7   9
ATOM      9  C   UNL     1      -9.255  -1.222   2.030  1.00  0.00     0.023 A 
ATOM     10  C   UNL     1      -8.077  -1.404   2.754  1.00  0.00     0.012 A 
ATOM     11  C   UNL     1      -9.537  -2.044   0.939  1.00  0.00     0.012 A 
ATOM     12  C   UNL     1      -7.181  -2.409   2.387  1.00  0.00     0.004 A 
ATOM     13  C   UNL     1      -8.642  -3.049   0.572  1.00  0.00     0.004 A 
ATOM     14  C   UNL     1      -7.464  -3.232   1.296  1.00  0.00    -0.051 A 
ATOM     15  C   UNL     1      -6.506  -4.304   0.904  1.00  0.00     0.044 C 
ENDBRANCH   7   9
ENDBRANCH   1   7
BRANCH   4  16
ATOM     16  N   UNL     1     -14.104  -2.485   4.233  1.00  0.00     0.066 N 
ATOM     17  O   UNL     1     -15.247  -2.287   4.712  1.00  0.00    -0.258 OA
ATOM     18  O   UNL     1     -13.428  -3.500   4.517  1.00  0.00    -0.258 OA
ENDBRANCH   4  16
BRANCH   5  19
ATOM     19  O   UNL     1     -14.632   0.876   0.784  1.00  0.00    -0.504 OA
ATOM     20  H   UNL     1     -14.192   1.713   0.561  1.00  0.00     0.293 HD
ENDBRANCH   5  19
BRANCH   6  21
ATOM     21  O   UNL     1     -15.739  -0.976   2.505  1.00  0.00    -0.500 OA
ATOM     22  H   UNL     1     -16.155  -0.409   1.837  1.00  0.00     0.294 HD
ENDBRANCH   6  21
TORSDOF 5
ENDMDL
MODEL 7
REMARK VINA RESULT:    -4.635      3.705      7.247
REMARK INTER + INTRA:          -6.600
REMARK INTER:                  -5.638
REMARK INTRA:                  -0.962
REMARK UNBOUND:                -0.882
REMARK SMILES Cc1ccc(C(=O)c2cc(O)c(O)c([N+](=O)[O-])c2)cc1
REMARK SMILES IDX 8 1 18 2 9 3 14 4 10 5 12 6 6 7 7 8 5 9 4 10 19 11 3 12
REMARK SMILES IDX 20 13 2 14 1 15 15 16 17 17 16 18 11 19 13 21
REMARK H PARENT 11 20 13 22
ROOT
ATOM      1  C   UNL     1     -11.916  -1.983   1.817  1.00  0.00     0.033 A 
ATOM      2  C   UNL     1     -12.732  -1.014   1.280  1.00  0.00     0.102 A 
ATOM      3  C   UNL     1     -12.232  -2.675   2.962  1.00  0.00     0.063 A 
ATOM      4  C   UNL     1     -13.933  -0.722   1.926  1.00  0.00     0.315 A 
ATOM      5  C   UNL     1     -13.434  -2.382   3.608  1.00  0.00     0.165 A 
ATOM      6  C   UNL     1     -14.285  -1.406   3.089  1.00  0.00     0.237 A 
ENDROOT
BRANCH   1   7
ATOM      7  C   UNL     1     -10.628  -2.296   1.126  1.00  0.00     0.193 C 
ATOM      8  O   UNL     1     -10.489  -3.443   0.676  1.00  0.00    -0.289 OA
BRANCH   7   9
ATOM      9  C   UNL     1      -9.566  -1.315   0.975  1.00  0.00     0.023 A 
ATOM     10  C   UNL     1      -8.900  -1.191  -0.245  1.00  0.00     0.012 A 
ATOM     11  C   UNL     1      -9.213  -0.497   2.048  1.00  0.00     0.012 A 
ATOM     12  C   UNL     1      -7.881  -0.250  -0.390  1.00  0.00     0.004 A 
ATOM     13  C   UNL     1      -8.194   0.445   1.903  1.00  0.00     0.004 A 
ATOM     14  C   UNL     1      -7.528   0.569   0.684  1.00  0.00    -0.051 A 
ATOM     15  C   UNL     1      -6.438   1.574   0.529  1.00  0.00     0.044 C 
ENDBRANCH   7   9
ENDBRANCH   1   7
BRANCH   4  16
ATOM     16  N   UNL     1     -14.787   0.277   1.382  1.00  0.00     0.066 N 
ATOM     17  O   UNL     1     -16.027   0.165   1.540  1.00  0.00    -0.258 OA
ATOM     18  O   UNL     1     -14.277   1.239   0.763  1.00  0.00    -0.258 OA
ENDBRANCH   4  16
BRANCH   5  19
ATOM     19  O   UNL     1     -13.764  -3.059   4.744  1.00  0.00    -0.504 OA
ATOM     20  H   UNL     1     -12.991  -3.550   5.066  1.00  0.00     0.293 HD
ENDBRANCH   5  19
BRANCH   6  21
ATOM     21  O   UNL     1     -15.458  -1.129   3.729  1.00  0.00    -0.500 OA
ATOM     22  H   UNL     1     -15.688  -0.196   3.598  1.00  0.00     0.294 HD
ENDBRANCH   6  21
TORSDOF 5
ENDMDL
MODEL 8
REMARK VINA RESULT:    -4.622      3.943      7.212
REMARK INTER + INTRA:          -6.585
REMARK INTER:                  -5.584
REMARK INTRA:                  -1.001
REMARK UNBOUND:                -0.882
REMARK SMILES Cc1ccc(C(=O)c2cc(O)c(O)c([N+](=O)[O-])c2)cc1
REMARK SMILES IDX 8 1 18 2 9 3 14 4 10 5 12 6 6 7 7 8 5 9 4 10 19 11 3 12
REMARK SMILES IDX 20 13 2 14 1 15 15 16 17 17 16 18 11 19 13 21
REMARK H PARENT 11 20 13 22
ROOT
ATOM      1  C   UNL     1     -11.822  -0.682   2.594  1.00  0.00     0.033 A 
ATOM      2  C   UNL     1     -12.762  -0.089   1.783  1.00  0.00     0.102 A 
ATOM      3  C   UNL     1     -12.150  -1.574   3.587  1.00  0.00     0.063 A 
ATOM      4  C   UNL     1     -14.106  -0.406   1.976  1.00  0.00     0.315 A 
ATOM      5  C   UNL     1     -13.495  -1.891   3.782  1.00  0.00     0.165 A 
ATOM      6  C   UNL     1     -14.473  -1.307   2.975  1.00  0.00     0.237 A 
ENDROOT
BRANCH   1   7
ATOM      7  C   UNL     1     -10.382  -0.342   2.387  1.00  0.00     0.193 C 
ATOM      8  O   UNL     1     -10.048   0.841   2.553  1.00  0.00    -0.289 OA
BRANCH   7   9
ATOM      9  C   UNL     1      -9.393  -1.338   2.006  1.00  0.00     0.023 A 
ATOM     10  C   UNL     1      -9.614  -2.152   0.895  1.00  0.00     0.012 A 
ATOM     11  C   UNL     1      -8.223  -1.478   2.752  1.00  0.00     0.012 A 
ATOM     12  C   UNL     1      -8.665  -3.106   0.531  1.00  0.00     0.004 A 
ATOM     13  C   UNL     1      -7.273  -2.433   2.388  1.00  0.00     0.004 A 
ATOM     14  C   UNL     1      -7.494  -3.247   1.276  1.00  0.00    -0.051 A 
ATOM     15  C   UNL     1      -6.480  -4.269   0.887  1.00  0.00     0.044 C 
ENDBRANCH   7   9
ENDBRANCH   1   7
BRANCH   4  16
ATOM     16  N   UNL     1     -15.089   0.199   1.146  1.00  0.00     0.066 N 
ATOM     17  O   UNL     1     -16.246   0.367   1.600  1.00  0.00    -0.258 OA
ATOM     18  O   UNL     1     -14.769   0.547  -0.015  1.00  0.00    -0.258 OA
ENDBRANCH   4  16
BRANCH   5  19
ATOM     19  O   UNL     1     -13.839  -2.773   4.761  1.00  0.00    -0.504 OA
ATOM     20  H   UNL     1     -13.141  -2.797   5.437  1.00  0.00     0.293 HD
ENDBRANCH   5  19
BRANCH   6  21
ATOM     21  O   UNL     1     -15.785  -1.626   3.175  1.00  0.00    -0.500 OA
ATOM     22  H   UNL     1     -15.891  -2.590   3.167  1.00  0.00     0.294 HD
ENDBRANCH   6  21
TORSDOF 5
ENDMDL
MODEL 9
REMARK VINA RESULT:    -4.619      3.865      6.911
REMARK INTER + INTRA:          -6.580
REMARK INTER:                  -5.577
REMARK INTRA:                  -1.003
REMARK UNBOUND:                -0.882
REMARK SMILES Cc1ccc(C(=O)c2cc(O)c(O)c([N+](=O)[O-])c2)cc1
REMARK SMILES IDX 8 1 18 2 9 3 14 4 10 5 12 6 6 7 7 8 5 9 4 10 19 11 3 12
REMARK SMILES IDX 20 13 2 14 1 15 15 16 17 17 16 18 11 19 13 21
REMARK H PARENT 11 20 13 22
ROOT
ATOM      1  C   UNL     1     -12.061  -1.713   1.747  1.00  0.00     0.033 A 
ATOM      2  C   UNL     1     -12.487  -2.255   2.937  1.00  0.00     0.102 A 
ATOM      3  C   UNL     1     -12.802  -0.800   1.035  1.00  0.00     0.063 A 
ATOM      4  C   UNL     1     -13.725  -1.860   3.444  1.00  0.00     0.315 A 
ATOM      5  C   UNL     1     -14.041  -0.406   1.541  1.00  0.00     0.165 A 
ATOM      6  C   UNL     1     -14.502  -0.935   2.747  1.00  0.00     0.237 A 
ENDROOT
BRANCH   1   7
ATOM      7  C   UNL     1     -10.735  -2.135   1.204  1.00  0.00     0.193 C 
ATOM      8  O   UNL     1     -10.600  -3.330   0.899  1.00  0.00    -0.289 OA
BRANCH   7   9
ATOM      9  C   UNL     1      -9.631  -1.205   1.029  1.00  0.00     0.023 A 
ATOM     10  C   UNL     1      -9.235  -0.386   2.087  1.00  0.00     0.012 A 
ATOM     11  C   UNL     1      -8.969  -1.130  -0.196  1.00  0.00     0.012 A 
ATOM     12  C   UNL     1      -8.176   0.506   1.919  1.00  0.00     0.004 A 
ATOM     13  C   UNL     1      -7.910  -0.238  -0.365  1.00  0.00     0.004 A 
ATOM     14  C   UNL     1      -7.513   0.581   0.693  1.00  0.00    -0.051 A 
ATOM     15  C   UNL     1      -6.383   1.536   0.514  1.00  0.00     0.044 C 
ENDBRANCH   7   9
ENDBRANCH   1   7
BRANCH   4  16
ATOM     16  N   UNL     1     -14.179  -2.411   4.674  1.00  0.00     0.066 N 
ATOM     17  O   UNL     1     -13.332  -2.764   5.529  1.00  0.00    -0.258 OA
ATOM     18  O   UNL     1     -15.412  -2.528   4.867  1.00  0.00    -0.258 OA
ENDBRANCH   4  16
BRANCH   5  19
ATOM     19  O   UNL     1     -14.789   0.499   0.849  1.00  0.00    -0.504 OA
ATOM     20  H   UNL     1     -15.488   0.851   1.424  1.00  0.00     0.293 HD
ENDBRANCH   5  19
BRANCH   6  21
ATOM     21  O   UNL     1     -15.715  -0.541   3.232  1.00  0.00    -0.500 OA
ATOM     22  H   UNL     1     -16.423  -1.003   2.756  1.00  0.00     0.294 HD
ENDBRANCH   6  21
TORSDOF 5
ENDMDL
