MODEL 1
REMARK VINA RESULT:    -6.767      0.000      0.000
REMARK INTER + INTRA:          -8.576
REMARK INTER:                  -7.954
REMARK INTRA:                  -0.622
REMARK UNBOUND:                -0.622
REMARK SMILES O=C(O)c1cc(-c2ccc(F)cc2F)ccc1O
REMARK SMILES IDX 6 1 5 2 15 3 4 4 17 5 16 6 7 7 13 8 12 9 8 10 10 11 9 12
REMARK SMILES IDX 14 13 11 14 2 15 1 16 3 17 18 19
REMARK H PARENT 3 18 18 20
ROOT
ATOM      1  C   UNL     1      -8.621  -1.281   1.374  1.00  0.00    -0.014 A 
ATOM      2  C   UNL     1      -7.997  -0.148   0.855  1.00  0.00     0.028 A 
ATOM      3  C   UNL     1      -7.893  -2.457   1.557  1.00  0.00     0.013 A 
ATOM      4  C   UNL     1      -6.643  -0.190   0.519  1.00  0.00     0.102 A 
ATOM      5  C   UNL     1      -5.915  -1.365   0.702  1.00  0.00     0.130 A 
ATOM      6  C   UNL     1      -6.541  -2.499   1.221  1.00  0.00     0.048 A 
ENDROOT
BRANCH   1   7
ATOM      7  C   UNL     1     -10.025  -1.239   1.722  1.00  0.00     0.018 A 
ATOM      8  C   UNL     1     -10.517  -0.210   2.526  1.00  0.00     0.133 A 
ATOM      9  C   UNL     1     -11.872  -0.173   2.859  1.00  0.00     0.079 A 
ATOM     10  C   UNL     1     -10.887  -2.230   1.251  1.00  0.00     0.015 A 
ATOM     11  C   UNL     1     -12.733  -1.164   2.389  1.00  0.00     0.126 A 
ATOM     12  C   UNL     1     -12.240  -2.192   1.585  1.00  0.00     0.040 A 
ATOM     13  F   UNL     1      -9.702   0.748   2.988  1.00  0.00    -0.206 F 
ATOM     14  F   UNL     1     -14.033  -1.130   2.708  1.00  0.00    -0.207 F 
ENDBRANCH   1   7
BRANCH   4  15
ATOM     15  C   UNL     1      -6.009   1.005  -0.022  1.00  0.00     0.339 C 
ATOM     16  O   UNL     1      -5.422   1.074  -1.104  1.00  0.00    -0.246 OA
BRANCH  15  17
ATOM     17  O   UNL     1      -6.130   2.077   0.808  1.00  0.00    -0.478 OA
ATOM     18  H   UNL     1      -6.902   2.634   0.573  1.00  0.00     0.297 HD
ENDBRANCH  15  17
ENDBRANCH   4  15
BRANCH   5  19
ATOM     19  O   UNL     1      -4.592  -1.427   0.380  1.00  0.00    -0.507 OA
ATOM     20  H   UNL     1      -4.208  -2.231   0.769  1.00  0.00     0.293 HD
ENDBRANCH   5  19
TORSDOF 4
ENDMDL
MODEL 2
REMARK VINA RESULT:    -6.765      1.130      1.608
REMARK INTER + INTRA:          -8.573
REMARK INTER:                  -7.942
REMARK INTRA:                  -0.631
REMARK UNBOUND:                -0.622
REMARK SMILES O=C(O)c1cc(-c2ccc(F)cc2F)ccc1O
REMARK SMILES IDX 6 1 5 2 15 3 4 4 17 5 16 6 7 7 13 8 12 9 8 10 10 11 9 12
REMARK SMILES IDX 14 13 11 14 2 15 1 16 3 17 18 19
REMARK H PARENT 3 18 18 20
ROOT
ATOM      1  C   UNL     1      -8.607  -1.323   1.370  1.00  0.00    -0.014 A 
ATOM      2  C   UNL     1      -7.991  -0.182   0.857  1.00  0.00     0.028 A 
ATOM      3  C   UNL     1      -7.867  -2.490   1.559  1.00  0.00     0.013 A 
ATOM      4  C   UNL     1      -6.634  -0.207   0.533  1.00  0.00     0.102 A 
ATOM      5  C   UNL     1      -5.894  -1.375   0.722  1.00  0.00     0.130 A 
ATOM      6  C   UNL     1      -6.511  -2.517   1.235  1.00  0.00     0.048 A 
ENDROOT
BRANCH   1   7
ATOM      7  C   UNL     1     -10.015  -1.298   1.705  1.00  0.00     0.018 A 
ATOM      8  C   UNL     1     -10.876  -2.264   1.183  1.00  0.00     0.133 A 
ATOM      9  C   UNL     1     -12.233  -2.236   1.509  1.00  0.00     0.079 A 
ATOM     10  C   UNL     1     -10.509  -0.306   2.552  1.00  0.00     0.015 A 
ATOM     11  C   UNL     1     -12.727  -1.244   2.355  1.00  0.00     0.126 A 
ATOM     12  C   UNL     1     -11.865  -0.279   2.877  1.00  0.00     0.040 A 
ATOM     13  F   UNL     1     -10.418  -3.222   0.366  1.00  0.00    -0.206 F 
ATOM     14  F   UNL     1     -14.029  -1.216   2.667  1.00  0.00    -0.207 F 
ENDBRANCH   1   7
BRANCH   4  15
ATOM     15  C   UNL     1      -6.009   0.995  -0.000  1.00  0.00     0.339 C 
ATOM     16  O   UNL     1      -5.443   1.080  -1.092  1.00  0.00    -0.246 OA
BRANCH  15  17
ATOM     17  O   UNL     1      -6.114   2.054   0.848  1.00  0.00    -0.478 OA
ATOM     18  H   UNL     1      -5.394   2.704   0.711  1.00  0.00     0.297 HD
ENDBRANCH  15  17
ENDBRANCH   4  15
BRANCH   5  19
ATOM     19  O   UNL     1      -4.568  -1.420   0.413  1.00  0.00    -0.507 OA
ATOM     20  H   UNL     1      -4.063  -1.652   1.212  1.00  0.00     0.293 HD
ENDBRANCH   5  19
TORSDOF 4
ENDMDL
MODEL 3
REMARK VINA RESULT:    -6.743      1.621      3.117
REMARK INTER + INTRA:          -8.548
REMARK INTER:                  -7.935
REMARK INTRA:                  -0.613
REMARK UNBOUND:                -0.622
REMARK SMILES O=C(O)c1cc(-c2ccc(F)cc2F)ccc1O
REMARK SMILES IDX 6 1 5 2 15 3 4 4 17 5 16 6 7 7 13 8 12 9 8 10 10 11 9 12
REMARK SMILES IDX 14 13 11 14 2 15 1 16 3 17 18 19
REMARK H PARENT 3 18 18 20
ROOT
ATOM      1  C   UNL     1      -8.661  -1.279   1.211  1.00  0.00    -0.014 A 
ATOM      2  C   UNL     1      -7.933  -2.458   1.363  1.00  0.00     0.028 A 
ATOM      3  C   UNL     1      -8.048  -0.146   0.675  1.00  0.00     0.013 A 
ATOM      4  C   UNL     1      -6.592  -2.506   0.980  1.00  0.00     0.102 A 
ATOM      5  C   UNL     1      -5.980  -1.373   0.444  1.00  0.00     0.130 A 
ATOM      6  C   UNL     1      -6.708  -0.192   0.292  1.00  0.00     0.048 A 
ENDROOT
BRANCH   1   7
ATOM      7  C   UNL     1     -10.051  -1.228   1.610  1.00  0.00     0.018 A 
ATOM      8  C   UNL     1     -10.940  -2.212   1.175  1.00  0.00     0.133 A 
ATOM      9  C   UNL     1     -12.280  -2.159   1.561  1.00  0.00     0.079 A 
ATOM     10  C   UNL     1     -10.501  -0.195   2.431  1.00  0.00     0.015 A 
ATOM     11  C   UNL     1     -12.729  -1.125   2.382  1.00  0.00     0.126 A 
ATOM     12  C   UNL     1     -11.839  -0.143   2.817  1.00  0.00     0.040 A 
ATOM     13  F   UNL     1     -10.525  -3.211   0.383  1.00  0.00    -0.206 F 
ATOM     14  F   UNL     1     -14.015  -1.074   2.753  1.00  0.00    -0.207 F 
ENDBRANCH   1   7
BRANCH   4  15
ATOM     15  C   UNL     1      -5.850  -3.747   1.147  1.00  0.00     0.339 C 
ATOM     16  O   UNL     1      -4.809  -3.875   1.796  1.00  0.00    -0.246 OA
BRANCH  15  17
ATOM     17  O   UNL     1      -6.433  -4.791   0.497  1.00  0.00    -0.478 OA
ATOM     18  H   UNL     1      -7.403  -4.812   0.637  1.00  0.00     0.297 HD
ENDBRANCH  15  17
ENDBRANCH   4  15
BRANCH   5  19
ATOM     19  O   UNL     1      -4.672  -1.398   0.063  1.00  0.00    -0.507 OA
ATOM     20  H   UNL     1      -4.625  -1.493  -0.904  1.00  0.00     0.293 HD
ENDBRANCH   5  19
TORSDOF 4
ENDMDL
MODEL 4
REMARK VINA RESULT:    -5.443      1.273      1.558
REMARK INTER + INTRA:          -7.020
REMARK INTER:                  -6.112
REMARK INTRA:                  -0.907
REMARK UNBOUND:                -0.622
REMARK SMILES O=C(O)c1cc(-c2ccc(F)cc2F)ccc1O
REMARK SMILES IDX 6 1 5 2 15 3 4 4 17 5 16 6 7 7 13 8 12 9 8 10 10 11 9 12
REMARK SMILES IDX 14 13 11 14 2 15 1 16 3 17 18 19
REMARK H PARENT 3 18 18 20
ROOT
ATOM      1  C   UNL     1      -9.439  -1.300   1.101  1.00  0.00    -0.014 A 
ATOM      2  C   UNL     1      -8.664  -0.158   0.909  1.00  0.00     0.028 A 
ATOM      3  C   UNL     1      -8.886  -2.563   0.887  1.00  0.00     0.013 A 
ATOM      4  C   UNL     1      -7.334  -0.277   0.502  1.00  0.00     0.102 A 
ATOM      5  C   UNL     1      -6.781  -1.539   0.289  1.00  0.00     0.130 A 
ATOM      6  C   UNL     1      -7.557  -2.683   0.481  1.00  0.00     0.048 A 
ENDROOT
BRANCH   1   7
ATOM      7  C   UNL     1     -10.818  -1.178   1.521  1.00  0.00     0.018 A 
ATOM      8  C   UNL     1     -11.229  -1.714   2.742  1.00  0.00     0.133 A 
ATOM      9  C   UNL     1     -12.560  -1.594   3.143  1.00  0.00     0.079 A 
ATOM     10  C   UNL     1     -11.737  -0.521   0.703  1.00  0.00     0.015 A 
ATOM     11  C   UNL     1     -13.479  -0.938   2.325  1.00  0.00     0.126 A 
ATOM     12  C   UNL     1     -13.067  -0.401   1.105  1.00  0.00     0.040 A 
ATOM     13  F   UNL     1     -10.359  -2.351   3.539  1.00  0.00    -0.206 F 
ATOM     14  F   UNL     1     -14.756  -0.822   2.709  1.00  0.00    -0.207 F 
ENDBRANCH   1   7
BRANCH   4  15
ATOM     15  C   UNL     1      -6.541   0.929   0.307  1.00  0.00     0.339 C 
ATOM     16  O   UNL     1      -6.582   1.933   1.022  1.00  0.00    -0.246 OA
BRANCH  15  17
ATOM     17  O   UNL     1      -5.720   0.840  -0.775  1.00  0.00    -0.478 OA
ATOM     18  H   UNL     1      -4.959   0.246  -0.607  1.00  0.00     0.297 HD
ENDBRANCH  15  17
ENDBRANCH   4  15
BRANCH   5  19
ATOM     19  O   UNL     1      -5.484  -1.677  -0.108  1.00  0.00    -0.507 OA
ATOM     20  H   UNL     1      -5.013  -2.234   0.536  1.00  0.00     0.293 HD
ENDBRANCH   5  19
TORSDOF 4
ENDMDL
MODEL 5
REMARK VINA RESULT:    -5.284      4.167      6.373
REMARK INTER + INTRA:          -6.833
REMARK INTER:                  -5.747
REMARK INTRA:                  -1.086
REMARK UNBOUND:                -0.622
REMARK SMILES O=C(O)c1cc(-c2ccc(F)cc2F)ccc1O
REMARK SMILES IDX 6 1 5 2 15 3 4 4 17 5 16 6 7 7 13 8 12 9 8 10 10 11 9 12
REMARK SMILES IDX 14 13 11 14 2 15 1 16 3 17 18 19
REMARK H PARENT 3 18 18 20
ROOT
ATOM      1  C   UNL     1     -11.288  -1.186   2.070  1.00  0.00    -0.014 A 
ATOM      2  C   UNL     1     -12.262  -0.463   1.381  1.00  0.00     0.028 A 
ATOM      3  C   UNL     1     -11.641  -1.942   3.187  1.00  0.00     0.013 A 
ATOM      4  C   UNL     1     -13.590  -0.497   1.810  1.00  0.00     0.102 A 
ATOM      5  C   UNL     1     -13.942  -1.253   2.928  1.00  0.00     0.130 A 
ATOM      6  C   UNL     1     -12.967  -1.976   3.617  1.00  0.00     0.048 A 
ENDROOT
BRANCH   1   7
ATOM      7  C   UNL     1      -9.911  -1.150   1.626  1.00  0.00     0.018 A 
ATOM      8  C   UNL     1      -9.047  -0.164   2.102  1.00  0.00     0.133 A 
ATOM      9  C   UNL     1      -7.720  -0.134   1.672  1.00  0.00     0.079 A 
ATOM     10  C   UNL     1      -9.449  -2.106   0.722  1.00  0.00     0.015 A 
ATOM     11  C   UNL     1      -7.258  -1.088   0.767  1.00  0.00     0.126 A 
ATOM     12  C   UNL     1      -8.123  -2.075   0.292  1.00  0.00     0.040 A 
ATOM     13  F   UNL     1      -9.476   0.763   2.970  1.00  0.00    -0.206 F 
ATOM     14  F   UNL     1      -5.985  -1.060   0.354  1.00  0.00    -0.207 F 
ENDBRANCH   1   7
BRANCH   4  15
ATOM     15  C   UNL     1     -14.592   0.264   1.077  1.00  0.00     0.339 C 
ATOM     16  O   UNL     1     -15.805   0.248   1.301  1.00  0.00    -0.246 OA
BRANCH  15  17
ATOM     17  O   UNL     1     -14.046   1.023   0.088  1.00  0.00    -0.478 OA
ATOM     18  H   UNL     1     -14.033   1.974   0.323  1.00  0.00     0.297 HD
ENDBRANCH  15  17
ENDBRANCH   4  15
BRANCH   5  19
ATOM     19  O   UNL     1     -15.233  -1.299   3.363  1.00  0.00    -0.507 OA
ATOM     20  H   UNL     1     -15.647  -2.119   3.040  1.00  0.00     0.293 HD
ENDBRANCH   5  19
TORSDOF 4
ENDMDL
MODEL 6
REMARK VINA RESULT:    -5.282      4.319      6.565
REMARK INTER + INTRA:          -6.831
REMARK INTER:                  -5.747
REMARK INTRA:                  -1.085
REMARK UNBOUND:                -0.622
REMARK SMILES O=C(O)c1cc(-c2ccc(F)cc2F)ccc1O
REMARK SMILES IDX 6 1 5 2 15 3 4 4 17 5 16 6 7 7 13 8 12 9 8 10 10 11 9 12
REMARK SMILES IDX 14 13 11 14 2 15 1 16 3 17 18 19
REMARK H PARENT 3 18 18 20
ROOT
ATOM      1  C   UNL     1     -11.311  -1.316   2.062  1.00  0.00    -0.014 A 
ATOM      2  C   UNL     1     -12.253  -0.559   1.367  1.00  0.00     0.028 A 
ATOM      3  C   UNL     1     -11.695  -2.046   3.186  1.00  0.00     0.013 A 
ATOM      4  C   UNL     1     -13.580  -0.532   1.795  1.00  0.00     0.102 A 
ATOM      5  C   UNL     1     -13.965  -1.262   2.919  1.00  0.00     0.130 A 
ATOM      6  C   UNL     1     -13.022  -2.020   3.615  1.00  0.00     0.048 A 
ENDROOT
BRANCH   1   7
ATOM      7  C   UNL     1      -9.933  -1.343   1.619  1.00  0.00     0.018 A 
ATOM      8  C   UNL     1      -9.502  -2.331   0.734  1.00  0.00     0.133 A 
ATOM      9  C   UNL     1      -8.173  -2.354   0.309  1.00  0.00     0.079 A 
ATOM     10  C   UNL     1      -9.037  -0.378   2.079  1.00  0.00     0.015 A 
ATOM     11  C   UNL     1      -7.277  -1.390   0.770  1.00  0.00     0.126 A 
ATOM     12  C   UNL     1      -7.709  -0.402   1.654  1.00  0.00     0.040 A 
ATOM     13  F   UNL     1     -10.350  -3.267   0.284  1.00  0.00    -0.206 F 
ATOM     14  F   UNL     1      -6.001  -1.411   0.363  1.00  0.00    -0.207 F 
ENDBRANCH   1   7
BRANCH   4  15
ATOM     15  C   UNL     1     -14.549   0.265   1.055  1.00  0.00     0.339 C 
ATOM     16  O   UNL     1     -15.769   0.252   1.234  1.00  0.00    -0.246 OA
BRANCH  15  17
ATOM     17  O   UNL     1     -13.961   1.053   0.114  1.00  0.00    -0.478 OA
ATOM     18  H   UNL     1     -14.300   0.862  -0.786  1.00  0.00     0.297 HD
ENDBRANCH  15  17
ENDBRANCH   4  15
BRANCH   5  19
ATOM     19  O   UNL     1     -15.257  -1.250   3.354  1.00  0.00    -0.507 OA
ATOM     20  H   UNL     1     -15.741  -0.545   2.890  1.00  0.00     0.293 HD
ENDBRANCH   5  19
TORSDOF 4
ENDMDL
MODEL 7
REMARK VINA RESULT:    -5.281      4.435      6.749
REMARK INTER + INTRA:          -6.830
REMARK INTER:                  -5.747
REMARK INTRA:                  -1.083
REMARK UNBOUND:                -0.622
REMARK SMILES O=C(O)c1cc(-c2ccc(F)cc2F)ccc1O
REMARK SMILES IDX 6 1 5 2 15 3 4 4 17 5 16 6 7 7 13 8 12 9 8 10 10 11 9 12
REMARK SMILES IDX 14 13 11 14 2 15 1 16 3 17 18 19
REMARK H PARENT 3 18 18 20
ROOT
ATOM      1  C   UNL     1     -11.342  -1.063   1.958  1.00  0.00    -0.014 A 
ATOM      2  C   UNL     1     -11.858  -1.796   3.026  1.00  0.00     0.028 A 
ATOM      3  C   UNL     1     -12.191  -0.283   1.173  1.00  0.00     0.013 A 
ATOM      4  C   UNL     1     -13.224  -1.750   3.310  1.00  0.00     0.102 A 
ATOM      5  C   UNL     1     -14.072  -0.969   2.524  1.00  0.00     0.130 A 
ATOM      6  C   UNL     1     -13.555  -0.236   1.455  1.00  0.00     0.048 A 
ENDROOT
BRANCH   1   7
ATOM      7  C   UNL     1      -9.926  -1.112   1.663  1.00  0.00     0.018 A 
ATOM      8  C   UNL     1      -9.063  -0.164   2.213  1.00  0.00     0.133 A 
ATOM      9  C   UNL     1      -7.699  -0.215   1.926  1.00  0.00     0.079 A 
ATOM     10  C   UNL     1      -9.425  -2.111   0.828  1.00  0.00     0.015 A 
ATOM     11  C   UNL     1      -7.198  -1.213   1.090  1.00  0.00     0.126 A 
ATOM     12  C   UNL     1      -8.062  -2.161   0.542  1.00  0.00     0.040 A 
ATOM     13  F   UNL     1      -9.528   0.804   3.015  1.00  0.00    -0.206 F 
ATOM     14  F   UNL     1      -5.889  -1.262   0.814  1.00  0.00    -0.207 F 
ENDBRANCH   1   7
BRANCH   4  15
ATOM     15  C   UNL     1     -13.743  -2.522   4.430  1.00  0.00     0.339 C 
ATOM     16  O   UNL     1     -14.869  -2.401   4.919  1.00  0.00    -0.246 OA
BRANCH  15  17
ATOM     17  O   UNL     1     -12.839  -3.423   4.902  1.00  0.00    -0.478 OA
ATOM     18  H   UNL     1     -12.340  -3.071   5.669  1.00  0.00     0.297 HD
ENDBRANCH  15  17
ENDBRANCH   4  15
BRANCH   5  19
ATOM     19  O   UNL     1     -15.409  -0.910   2.785  1.00  0.00    -0.507 OA
ATOM     20  H   UNL     1     -15.849  -0.415   2.072  1.00  0.00     0.293 HD
ENDBRANCH   5  19
TORSDOF 4
ENDMDL
MODEL 8
REMARK VINA RESULT:    -5.047      2.047      3.179
REMARK INTER + INTRA:          -6.554
REMARK INTER:                  -5.531
REMARK INTRA:                  -1.023
REMARK UNBOUND:                -0.622
REMARK SMILES O=C(O)c1cc(-c2ccc(F)cc2F)ccc1O
REMARK SMILES IDX 6 1 5 2 15 3 4 4 17 5 16 6 7 7 13 8 12 9 8 10 10 11 9 12
REMARK SMILES IDX 14 13 11 14 2 15 1 16 3 17 18 19
REMARK H PARENT 3 18 18 20
ROOT
ATOM      1  C   UNL     1     -10.013  -1.106   1.954  1.00  0.00    -0.014 A 
ATOM      2  C   UNL     1      -9.466  -2.258   1.391  1.00  0.00     0.028 A 
ATOM      3  C   UNL     1      -9.179  -0.068   2.368  1.00  0.00     0.013 A 
ATOM      4  C   UNL     1      -8.083  -2.372   1.240  1.00  0.00     0.102 A 
ATOM      5  C   UNL     1      -7.249  -1.334   1.654  1.00  0.00     0.130 A 
ATOM      6  C   UNL     1      -7.797  -0.181   2.218  1.00  0.00     0.048 A 
ENDROOT
BRANCH   1   7
ATOM      7  C   UNL     1     -11.447  -0.988   2.112  1.00  0.00     0.018 A 
ATOM      8  C   UNL     1     -12.102  -1.698   3.118  1.00  0.00     0.133 A 
ATOM      9  C   UNL     1     -13.485  -1.581   3.266  1.00  0.00     0.079 A 
ATOM     10  C   UNL     1     -12.173  -0.160   1.255  1.00  0.00     0.015 A 
ATOM     11  C   UNL     1     -14.211  -0.754   2.409  1.00  0.00     0.126 A 
ATOM     12  C   UNL     1     -13.554  -0.044   1.404  1.00  0.00     0.040 A 
ATOM     13  F   UNL     1     -11.419  -2.500   3.947  1.00  0.00    -0.206 F 
ATOM     14  F   UNL     1     -15.537  -0.642   2.551  1.00  0.00    -0.207 F 
ENDBRANCH   1   7
BRANCH   4  15
ATOM     15  C   UNL     1      -7.531  -3.583   0.649  1.00  0.00     0.339 C 
ATOM     16  O   UNL     1      -6.344  -3.915   0.679  1.00  0.00    -0.246 OA
BRANCH  15  17
ATOM     17  O   UNL     1      -8.482  -4.342   0.039  1.00  0.00    -0.478 OA
ATOM     18  H   UNL     1      -8.298  -5.300   0.131  1.00  0.00     0.297 HD
ENDBRANCH  15  17
ENDBRANCH   4  15
BRANCH   5  19
ATOM     19  O   UNL     1      -5.896  -1.425   1.516  1.00  0.00    -0.507 OA
ATOM     20  H   UNL     1      -5.473  -1.148   2.347  1.00  0.00     0.293 HD
ENDBRANCH   5  19
TORSDOF 4
ENDMDL
MODEL 9
REMARK VINA RESULT:    -4.221      2.393      3.168
REMARK INTER + INTRA:          -5.583
REMARK INTER:                  -4.502
REMARK INTRA:                  -1.081
REMARK UNBOUND:                -0.622
REMARK SMILES O=C(O)c1cc(-c2ccc(F)cc2F)ccc1O
REMARK SMILES IDX 6 1 5 2 15 3 4 4 17 5 16 6 7 7 13 8 12 9 8 10 10 11 9 12
REMARK SMILES IDX 14 13 11 14 2 15 1 16 3 17 18 19
REMARK H PARENT 3 18 18 20
ROOT
ATOM      1  C   UNL     1     -10.923  -1.919   1.424  1.00  0.00    -0.014 A 
ATOM      2  C   UNL     1      -9.803  -1.376   2.053  1.00  0.00     0.028 A 
ATOM      3  C   UNL     1     -10.770  -2.944   0.491  1.00  0.00     0.013 A 
ATOM      4  C   UNL     1      -8.529  -1.858   1.748  1.00  0.00     0.102 A 
ATOM      5  C   UNL     1      -8.377  -2.883   0.815  1.00  0.00     0.130 A 
ATOM      6  C   UNL     1      -9.498  -3.426   0.186  1.00  0.00     0.048 A 
ENDROOT
BRANCH   1   7
ATOM      7  C   UNL     1     -12.244  -1.419   1.739  1.00  0.00     0.018 A 
ATOM      8  C   UNL     1     -12.945  -1.932   2.830  1.00  0.00     0.133 A 
ATOM      9  C   UNL     1     -14.219  -1.447   3.130  1.00  0.00     0.079 A 
ATOM     10  C   UNL     1     -12.815  -0.422   0.949  1.00  0.00     0.015 A 
ATOM     11  C   UNL     1     -14.790  -0.451   2.339  1.00  0.00     0.126 A 
ATOM     12  C   UNL     1     -14.087   0.062   1.249  1.00  0.00     0.040 A 
ATOM     13  F   UNL     1     -12.412  -2.893   3.598  1.00  0.00    -0.206 F 
ATOM     14  F   UNL     1     -16.012   0.015   2.626  1.00  0.00    -0.207 F 
ENDBRANCH   1   7
BRANCH   4  15
ATOM     15  C   UNL     1      -7.373  -1.277   2.416  1.00  0.00     0.339 C 
ATOM     16  O   UNL     1      -7.233  -0.084   2.693  1.00  0.00    -0.246 OA
BRANCH  15  17
ATOM     17  O   UNL     1      -6.427  -2.209   2.718  1.00  0.00    -0.478 OA
ATOM     18  H   UNL     1      -5.537  -1.938   2.411  1.00  0.00     0.297 HD
ENDBRANCH  15  17
ENDBRANCH   4  15
BRANCH   5  19
ATOM     19  O   UNL     1      -7.142  -3.368   0.503  1.00  0.00    -0.507 OA
ATOM     20  H   UNL     1      -7.000  -3.283  -0.456  1.00  0.00     0.293 HD
ENDBRANCH   5  19
TORSDOF 4
ENDMDL
