MODEL 1
REMARK VINA RESULT:    -4.955      0.000      0.000
REMARK INTER + INTRA:          -6.975
REMARK INTER:                  -6.114
REMARK INTRA:                  -0.861
REMARK UNBOUND:                -0.861
REMARK SMILES Cc1ccc(C(=O)c2cc(O)c(O)c([N+](=O)[O-])c2)cc1
REMARK SMILES IDX 8 1 18 2 9 3 14 4 10 5 12 6 6 7 7 8 5 9 4 10 19 11 3 12
REMARK SMILES IDX 20 13 2 14 1 15 15 16 17 17 16 18 11 19 13 21
REMARK H PARENT 11 20 13 22
ROOT
ATOM      1  C   UNL     1       2.735   7.786   2.345  1.00  0.00     0.033 A 
ATOM      2  C   UNL     1       2.986   6.953   3.410  1.00  0.00     0.102 A 
ATOM      3  C   UNL     1       2.212   7.340   1.155  1.00  0.00     0.063 A 
ATOM      4  C   UNL     1       2.697   5.595   3.277  1.00  0.00     0.315 A 
ATOM      5  C   UNL     1       1.923   5.981   1.021  1.00  0.00     0.165 A 
ATOM      6  C   UNL     1       2.165   5.109   2.083  1.00  0.00     0.237 A 
ENDROOT
BRANCH   1   7
ATOM      7  C   UNL     1       3.045   9.241   2.487  1.00  0.00     0.193 C 
ATOM      8  O   UNL     1       2.269  10.044   1.946  1.00  0.00    -0.289 OA
BRANCH   7   9
ATOM      9  C   UNL     1       4.201   9.723   3.225  1.00  0.00     0.023 A 
ATOM     10  C   UNL     1       5.431   9.861   2.582  1.00  0.00     0.012 A 
ATOM     11  C   UNL     1       4.081  10.048   4.576  1.00  0.00     0.012 A 
ATOM     12  C   UNL     1       6.540  10.324   3.290  1.00  0.00     0.004 A 
ATOM     13  C   UNL     1       5.190  10.511   5.285  1.00  0.00     0.004 A 
ATOM     14  C   UNL     1       6.420  10.649   4.641  1.00  0.00    -0.051 A 
ATOM     15  C   UNL     1       7.606  11.143   5.398  1.00  0.00     0.044 C 
ENDBRANCH   7   9
ENDBRANCH   1   7
BRANCH   4  16
ATOM     16  N   UNL     1       2.951   4.721   4.369  1.00  0.00     0.066 N 
ATOM     17  O   UNL     1       2.849   5.166   5.538  1.00  0.00    -0.258 OA
ATOM     18  O   UNL     1       3.269   3.532   4.133  1.00  0.00    -0.258 OA
ENDBRANCH   4  16
BRANCH   5  19
ATOM     19  O   UNL     1       1.403   5.520  -0.151  1.00  0.00    -0.504 OA
ATOM     20  H   UNL     1       1.732   6.062  -0.888  1.00  0.00     0.293 HD
ENDBRANCH   5  19
BRANCH   6  21
ATOM     21  O   UNL     1       1.878   3.782   1.940  1.00  0.00    -0.500 OA
ATOM     22  H   UNL     1       2.308   3.277   2.648  1.00  0.00     0.294 HD
ENDBRANCH   6  21
TORSDOF 5
ENDMDL
MODEL 2
REMARK VINA RESULT:    -4.904      2.050      3.556
REMARK INTER + INTRA:          -6.912
REMARK INTER:                  -6.057
REMARK INTRA:                  -0.855
REMARK UNBOUND:                -0.861
REMARK SMILES Cc1ccc(C(=O)c2cc(O)c(O)c([N+](=O)[O-])c2)cc1
REMARK SMILES IDX 8 1 18 2 9 3 14 4 10 5 12 6 6 7 7 8 5 9 4 10 19 11 3 12
REMARK SMILES IDX 20 13 2 14 1 15 15 16 17 17 16 18 11 19 13 21
REMARK H PARENT 11 20 13 22
ROOT
ATOM      1  C   UNL     1       4.215   6.913   3.004  1.00  0.00     0.033 A 
ATOM      2  C   UNL     1       3.620   7.029   1.769  1.00  0.00     0.102 A 
ATOM      3  C   UNL     1       4.006   5.837   3.834  1.00  0.00     0.063 A 
ATOM      4  C   UNL     1       2.770   6.010   1.339  1.00  0.00     0.315 A 
ATOM      5  C   UNL     1       3.155   4.818   3.405  1.00  0.00     0.165 A 
ATOM      6  C   UNL     1       2.537   4.905   2.157  1.00  0.00     0.237 A 
ENDROOT
BRANCH   1   7
ATOM      7  C   UNL     1       5.125   8.004   3.464  1.00  0.00     0.193 C 
ATOM      8  O   UNL     1       6.123   7.673   4.122  1.00  0.00    -0.289 OA
BRANCH   7   9
ATOM      9  C   UNL     1       4.876   9.405   3.166  1.00  0.00     0.023 A 
ATOM     10  C   UNL     1       4.084  10.170   4.022  1.00  0.00     0.012 A 
ATOM     11  C   UNL     1       5.430   9.985   2.025  1.00  0.00     0.012 A 
ATOM     12  C   UNL     1       3.845  11.514   3.736  1.00  0.00     0.004 A 
ATOM     13  C   UNL     1       5.191  11.330   1.738  1.00  0.00     0.004 A 
ATOM     14  C   UNL     1       4.399  12.095   2.594  1.00  0.00    -0.051 A 
ATOM     15  C   UNL     1       4.142  13.531   2.288  1.00  0.00     0.044 C 
ENDBRANCH   7   9
ENDBRANCH   1   7
BRANCH   4  16
ATOM     16  N   UNL     1       2.149   6.116   0.065  1.00  0.00     0.066 N 
ATOM     17  O   UNL     1       2.755   6.713  -0.857  1.00  0.00    -0.258 OA
ATOM     18  O   UNL     1       1.014   5.610  -0.100  1.00  0.00    -0.258 OA
ENDBRANCH   4  16
BRANCH   5  19
ATOM     19  O   UNL     1       2.937   3.744   4.214  1.00  0.00    -0.504 OA
ATOM     20  H   UNL     1       3.566   3.762   4.955  1.00  0.00     0.293 HD
ENDBRANCH   5  19
BRANCH   6  21
ATOM     21  O   UNL     1       1.707   3.902   1.748  1.00  0.00    -0.500 OA
ATOM     22  H   UNL     1       2.045   3.514   0.925  1.00  0.00     0.294 HD
ENDBRANCH   6  21
TORSDOF 5
ENDMDL
MODEL 3
REMARK VINA RESULT:    -3.693      1.252      2.915
REMARK INTER + INTRA:          -5.418
REMARK INTER:                  -4.635
REMARK INTRA:                  -0.783
REMARK UNBOUND:                -0.861
REMARK SMILES Cc1ccc(C(=O)c2cc(O)c(O)c([N+](=O)[O-])c2)cc1
REMARK SMILES IDX 8 1 18 2 9 3 14 4 10 5 12 6 6 7 7 8 5 9 4 10 19 11 3 12
REMARK SMILES IDX 20 13 2 14 1 15 15 16 17 17 16 18 11 19 13 21
REMARK H PARENT 11 20 13 22
ROOT
ATOM      1  C   UNL     1       2.863   8.070   2.509  1.00  0.00     0.033 A 
ATOM      2  C   UNL     1       2.575   7.648   1.231  1.00  0.00     0.102 A 
ATOM      3  C   UNL     1       2.836   7.230   3.596  1.00  0.00     0.063 A 
ATOM      4  C   UNL     1       2.242   6.308   1.031  1.00  0.00     0.315 A 
ATOM      5  C   UNL     1       2.502   5.890   3.396  1.00  0.00     0.165 A 
ATOM      6  C   UNL     1       2.205   5.429   2.113  1.00  0.00     0.237 A 
ENDROOT
BRANCH   1   7
ATOM      7  C   UNL     1       3.219   9.505   2.723  1.00  0.00     0.193 C 
ATOM      8  O   UNL     1       2.452  10.358   2.254  1.00  0.00    -0.289 OA
BRANCH   7   9
ATOM      9  C   UNL     1       4.411   9.912   3.450  1.00  0.00     0.023 A 
ATOM     10  C   UNL     1       4.339  10.174   4.818  1.00  0.00     0.012 A 
ATOM     11  C   UNL     1       5.627  10.040   2.779  1.00  0.00     0.012 A 
ATOM     12  C   UNL     1       5.482  10.564   5.515  1.00  0.00     0.004 A 
ATOM     13  C   UNL     1       6.772  10.430   3.476  1.00  0.00     0.004 A 
ATOM     14  C   UNL     1       6.699  10.692   4.844  1.00  0.00    -0.051 A 
ATOM     15  C   UNL     1       7.921  11.110   5.589  1.00  0.00     0.044 C 
ENDBRANCH   7   9
ENDBRANCH   1   7
BRANCH   4  16
ATOM     16  N   UNL     1       1.942   5.856  -0.283  1.00  0.00     0.066 N 
ATOM     17  O   UNL     1       0.791   5.421  -0.527  1.00  0.00    -0.258 OA
ATOM     18  O   UNL     1       2.836   5.907  -1.160  1.00  0.00    -0.258 OA
ENDBRANCH   4  16
BRANCH   5  19
ATOM     19  O   UNL     1       2.471   5.042   4.463  1.00  0.00    -0.504 OA
ATOM     20  H   UNL     1       1.673   5.212   4.990  1.00  0.00     0.293 HD
ENDBRANCH   5  19
BRANCH   6  21
ATOM     21  O   UNL     1       1.881   4.116   1.930  1.00  0.00    -0.500 OA
ATOM     22  H   UNL     1       2.673   3.566   2.037  1.00  0.00     0.294 HD
ENDBRANCH   6  21
TORSDOF 5
ENDMDL
MODEL 4
REMARK VINA RESULT:    -3.604      1.919      2.512
REMARK INTER + INTRA:          -5.308
REMARK INTER:                  -4.512
REMARK INTRA:                  -0.796
REMARK UNBOUND:                -0.861
REMARK SMILES Cc1ccc(C(=O)c2cc(O)c(O)c([N+](=O)[O-])c2)cc1
REMARK SMILES IDX 8 1 18 2 9 3 14 4 10 5 12 6 6 7 7 8 5 9 4 10 19 11 3 12
REMARK SMILES IDX 20 13 2 14 1 15 15 16 17 17 16 18 11 19 13 21
REMARK H PARENT 11 20 13 22
ROOT
ATOM      1  C   UNL     1       4.370   7.224   2.964  1.00  0.00     0.033 A 
ATOM      2  C   UNL     1       4.017   6.304   3.924  1.00  0.00     0.102 A 
ATOM      3  C   UNL     1       3.950   7.139   1.658  1.00  0.00     0.063 A 
ATOM      4  C   UNL     1       3.195   5.239   3.557  1.00  0.00     0.315 A 
ATOM      5  C   UNL     1       3.128   6.073   1.290  1.00  0.00     0.165 A 
ATOM      6  C   UNL     1       2.750   5.123   2.240  1.00  0.00     0.237 A 
ENDROOT
BRANCH   1   7
ATOM      7  C   UNL     1       5.251   8.365   3.358  1.00  0.00     0.193 C 
ATOM      8  O   UNL     1       6.301   8.092   3.960  1.00  0.00    -0.289 OA
BRANCH   7   9
ATOM      9  C   UNL     1       4.916   9.748   3.058  1.00  0.00     0.023 A 
ATOM     10  C   UNL     1       4.107  10.474   3.932  1.00  0.00     0.012 A 
ATOM     11  C   UNL     1       5.404  10.348   1.898  1.00  0.00     0.012 A 
ATOM     12  C   UNL     1       3.786  11.801   3.645  1.00  0.00     0.004 A 
ATOM     13  C   UNL     1       5.083  11.676   1.610  1.00  0.00     0.004 A 
ATOM     14  C   UNL     1       4.274  12.402   2.484  1.00  0.00    -0.051 A 
ATOM     15  C   UNL     1       3.930  13.819   2.177  1.00  0.00     0.044 C 
ENDBRANCH   7   9
ENDBRANCH   1   7
BRANCH   4  16
ATOM     16  N   UNL     1       2.820   4.281   4.538  1.00  0.00     0.066 N 
ATOM     17  O   UNL     1       2.141   4.657   5.524  1.00  0.00    -0.258 OA
ATOM     18  O   UNL     1       3.179   3.089   4.389  1.00  0.00    -0.258 OA
ENDBRANCH   4  16
BRANCH   5  19
ATOM     19  O   UNL     1       2.701   5.973   0.000  1.00  0.00    -0.504 OA
ATOM     20  H   UNL     1       2.334   6.825  -0.288  1.00  0.00     0.293 HD
ENDBRANCH   5  19
BRANCH   6  21
ATOM     21  O   UNL     1       1.945   4.086   1.868  1.00  0.00    -0.500 OA
ATOM     22  H   UNL     1       1.037   4.404   1.749  1.00  0.00     0.294 HD
ENDBRANCH   6  21
TORSDOF 5
ENDMDL
MODEL 5
REMARK VINA RESULT:    -2.977      1.933      2.735
REMARK INTER + INTRA:          -4.535
REMARK INTER:                  -3.806
REMARK INTRA:                  -0.729
REMARK UNBOUND:                -0.861
REMARK SMILES Cc1ccc(C(=O)c2cc(O)c(O)c([N+](=O)[O-])c2)cc1
REMARK SMILES IDX 8 1 18 2 9 3 14 4 10 5 12 6 6 7 7 8 5 9 4 10 19 11 3 12
REMARK SMILES IDX 20 13 2 14 1 15 15 16 17 17 16 18 11 19 13 21
REMARK H PARENT 11 20 13 22
ROOT
ATOM      1  C   UNL     1       3.562   6.674   2.025  1.00  0.00     0.033 A 
ATOM      2  C   UNL     1       3.028   5.440   2.317  1.00  0.00     0.102 A 
ATOM      3  C   UNL     1       3.200   7.400   0.915  1.00  0.00     0.063 A 
ATOM      4  C   UNL     1       2.078   4.902   1.449  1.00  0.00     0.315 A 
ATOM      5  C   UNL     1       2.250   6.862   0.047  1.00  0.00     0.165 A 
ATOM      6  C   UNL     1       1.688   5.612   0.314  1.00  0.00     0.237 A 
ENDROOT
BRANCH   1   7
ATOM      7  C   UNL     1       4.580   7.250   2.954  1.00  0.00     0.193 C 
ATOM      8  O   UNL     1       5.258   6.453   3.620  1.00  0.00    -0.289 OA
BRANCH   7   9
ATOM      9  C   UNL     1       4.789   8.682   3.091  1.00  0.00     0.023 A 
ATOM     10  C   UNL     1       4.182   9.379   4.136  1.00  0.00     0.012 A 
ATOM     11  C   UNL     1       5.596   9.360   2.178  1.00  0.00     0.012 A 
ATOM     12  C   UNL     1       4.382  10.753   4.267  1.00  0.00     0.004 A 
ATOM     13  C   UNL     1       5.797  10.735   2.309  1.00  0.00     0.004 A 
ATOM     14  C   UNL     1       5.190  11.431   3.354  1.00  0.00    -0.051 A 
ATOM     15  C   UNL     1       5.402  12.900   3.494  1.00  0.00     0.044 C 
ENDBRANCH   7   9
ENDBRANCH   1   7
BRANCH   4  16
ATOM     16  N   UNL     1       1.517   3.628   1.738  1.00  0.00     0.066 N 
ATOM     17  O   UNL     1       2.260   2.730   2.202  1.00  0.00    -0.258 OA
ATOM     18  O   UNL     1       0.297   3.439   1.521  1.00  0.00    -0.258 OA
ENDBRANCH   4  16
BRANCH   5  19
ATOM     19  O   UNL     1       1.878   7.567  -1.058  1.00  0.00    -0.504 OA
ATOM     20  H   UNL     1       1.784   6.963  -1.813  1.00  0.00     0.293 HD
ENDBRANCH   5  19
BRANCH   6  21
ATOM     21  O   UNL     1       0.759   5.097  -0.542  1.00  0.00    -0.500 OA
ATOM     22  H   UNL     1       0.879   5.482  -1.424  1.00  0.00     0.294 HD
ENDBRANCH   6  21
TORSDOF 5
ENDMDL
MODEL 6
REMARK VINA RESULT:    -2.966      1.359      2.720
REMARK INTER + INTRA:          -4.521
REMARK INTER:                  -3.794
REMARK INTRA:                  -0.727
REMARK UNBOUND:                -0.861
REMARK SMILES Cc1ccc(C(=O)c2cc(O)c(O)c([N+](=O)[O-])c2)cc1
REMARK SMILES IDX 8 1 18 2 9 3 14 4 10 5 12 6 6 7 7 8 5 9 4 10 19 11 3 12
REMARK SMILES IDX 20 13 2 14 1 15 15 16 17 17 16 18 11 19 13 21
REMARK H PARENT 11 20 13 22
ROOT
ATOM      1  C   UNL     1       2.819   6.837   3.044  1.00  0.00     0.033 A 
ATOM      2  C   UNL     1       2.288   5.871   2.221  1.00  0.00     0.102 A 
ATOM      3  C   UNL     1       3.395   6.548   4.258  1.00  0.00     0.063 A 
ATOM      4  C   UNL     1       2.338   4.540   2.635  1.00  0.00     0.315 A 
ATOM      5  C   UNL     1       3.444   5.217   4.674  1.00  0.00     0.165 A 
ATOM      6  C   UNL     1       2.916   4.213   3.862  1.00  0.00     0.237 A 
ENDROOT
BRANCH   1   7
ATOM      7  C   UNL     1       2.766   8.262   2.600  1.00  0.00     0.193 C 
ATOM      8  O   UNL     1       1.849   8.584   1.828  1.00  0.00    -0.289 OA
BRANCH   7   9
ATOM      9  C   UNL     1       3.735   9.253   3.040  1.00  0.00     0.023 A 
ATOM     10  C   UNL     1       4.822   9.574   2.226  1.00  0.00     0.012 A 
ATOM     11  C   UNL     1       3.579   9.881   4.275  1.00  0.00     0.012 A 
ATOM     12  C   UNL     1       5.752  10.524   2.648  1.00  0.00     0.004 A 
ATOM     13  C   UNL     1       4.509  10.832   4.697  1.00  0.00     0.004 A 
ATOM     14  C   UNL     1       5.596  11.154   3.883  1.00  0.00    -0.051 A 
ATOM     15  C   UNL     1       6.591  12.168   4.334  1.00  0.00     0.044 C 
ENDBRANCH   7   9
ENDBRANCH   1   7
BRANCH   4  16
ATOM     16  N   UNL     1       1.794   3.531   1.795  1.00  0.00     0.066 N 
ATOM     17  O   UNL     1       2.379   2.424   1.720  1.00  0.00    -0.258 OA
ATOM     18  O   UNL     1       0.745   3.776   1.154  1.00  0.00    -0.258 OA
ENDBRANCH   4  16
BRANCH   5  19
ATOM     19  O   UNL     1       4.012   4.912   5.874  1.00  0.00    -0.504 OA
ATOM     20  H   UNL     1       3.316   4.752   6.532  1.00  0.00     0.293 HD
ENDBRANCH   5  19
BRANCH   6  21
ATOM     21  O   UNL     1       2.970   2.914   4.278  1.00  0.00    -0.500 OA
ATOM     22  H   UNL     1       3.091   2.331   3.513  1.00  0.00     0.294 HD
ENDBRANCH   6  21
TORSDOF 5
ENDMDL
MODEL 7
REMARK VINA RESULT:    -2.909      3.392      4.639
REMARK INTER + INTRA:          -4.450
REMARK INTER:                  -3.576
REMARK INTRA:                  -0.874
REMARK UNBOUND:                -0.861
REMARK SMILES Cc1ccc(C(=O)c2cc(O)c(O)c([N+](=O)[O-])c2)cc1
REMARK SMILES IDX 8 1 18 2 9 3 14 4 10 5 12 6 6 7 7 8 5 9 4 10 19 11 3 12
REMARK SMILES IDX 20 13 2 14 1 15 15 16 17 17 16 18 11 19 13 21
REMARK H PARENT 11 20 13 22
ROOT
ATOM      1  C   UNL     1       3.937  10.120   3.340  1.00  0.00     0.033 A 
ATOM      2  C   UNL     1       3.458   9.059   2.607  1.00  0.00     0.102 A 
ATOM      3  C   UNL     1       3.690  10.271   4.684  1.00  0.00     0.063 A 
ATOM      4  C   UNL     1       2.689   8.094   3.257  1.00  0.00     0.315 A 
ATOM      5  C   UNL     1       2.920   9.306   5.333  1.00  0.00     0.165 A 
ATOM      6  C   UNL     1       2.420   8.216   4.619  1.00  0.00     0.237 A 
ENDROOT
BRANCH   1   7
ATOM      7  C   UNL     1       4.761  11.155   2.644  1.00  0.00     0.193 C 
ATOM      8  O   UNL     1       5.836  10.786   2.147  1.00  0.00    -0.289 OA
BRANCH   7   9
ATOM      9  C   UNL     1       4.343  12.543   2.540  1.00  0.00     0.023 A 
ATOM     10  C   UNL     1       2.995  12.855   2.361  1.00  0.00     0.012 A 
ATOM     11  C   UNL     1       5.290  13.564   2.621  1.00  0.00     0.012 A 
ATOM     12  C   UNL     1       2.595  14.187   2.261  1.00  0.00     0.004 A 
ATOM     13  C   UNL     1       4.890  14.898   2.521  1.00  0.00     0.004 A 
ATOM     14  C   UNL     1       3.542  15.209   2.341  1.00  0.00    -0.051 A 
ATOM     15  C   UNL     1       3.114  16.633   2.233  1.00  0.00     0.044 C 
ENDBRANCH   7   9
ENDBRANCH   1   7
BRANCH   4  16
ATOM     16  N   UNL     1       2.187   6.991   2.513  1.00  0.00     0.066 N 
ATOM     17  O   UNL     1       2.337   5.832   2.971  1.00  0.00    -0.258 OA
ATOM     18  O   UNL     1       1.609   7.208   1.422  1.00  0.00    -0.258 OA
ENDBRANCH   4  16
BRANCH   5  19
ATOM     19  O   UNL     1       2.666   9.439   6.665  1.00  0.00    -0.504 OA
ATOM     20  H   UNL     1       3.319  10.038   7.063  1.00  0.00     0.293 HD
ENDBRANCH   5  19
BRANCH   6  21
ATOM     21  O   UNL     1       1.668   7.279   5.266  1.00  0.00    -0.500 OA
ATOM     22  H   UNL     1       1.722   6.434   4.792  1.00  0.00     0.294 HD
ENDBRANCH   6  21
TORSDOF 5
ENDMDL
MODEL 8
REMARK VINA RESULT:    -2.900      2.337      3.785
REMARK INTER + INTRA:          -4.440
REMARK INTER:                  -3.598
REMARK INTRA:                  -0.842
REMARK UNBOUND:                -0.861
REMARK SMILES Cc1ccc(C(=O)c2cc(O)c(O)c([N+](=O)[O-])c2)cc1
REMARK SMILES IDX 8 1 18 2 9 3 14 4 10 5 12 6 6 7 7 8 5 9 4 10 19 11 3 12
REMARK SMILES IDX 20 13 2 14 1 15 15 16 17 17 16 18 11 19 13 21
REMARK H PARENT 11 20 13 22
ROOT
ATOM      1  C   UNL     1       5.361   9.457   3.158  1.00  0.00     0.033 A 
ATOM      2  C   UNL     1       4.735   8.249   3.352  1.00  0.00     0.102 A 
ATOM      3  C   UNL     1       5.879   9.843   1.944  1.00  0.00     0.063 A 
ATOM      4  C   UNL     1       4.618   7.376   2.270  1.00  0.00     0.315 A 
ATOM      5  C   UNL     1       5.763   8.970   0.862  1.00  0.00     0.165 A 
ATOM      6  C   UNL     1       5.131   7.736   1.025  1.00  0.00     0.237 A 
ENDROOT
BRANCH   1   7
ATOM      7  C   UNL     1       5.487  10.392   4.317  1.00  0.00     0.193 C 
ATOM      8  O   UNL     1       4.436  10.812   4.825  1.00  0.00    -0.289 OA
BRANCH   7   9
ATOM      9  C   UNL     1       6.775  10.808   4.847  1.00  0.00     0.023 A 
ATOM     10  C   UNL     1       6.946  12.108   5.326  1.00  0.00     0.012 A 
ATOM     11  C   UNL     1       7.841   9.909   4.877  1.00  0.00     0.012 A 
ATOM     12  C   UNL     1       8.182  12.506   5.834  1.00  0.00     0.004 A 
ATOM     13  C   UNL     1       9.078  10.307   5.385  1.00  0.00     0.004 A 
ATOM     14  C   UNL     1       9.248  11.607   5.864  1.00  0.00    -0.051 A 
ATOM     15  C   UNL     1      10.569  12.034   6.407  1.00  0.00     0.044 C 
ENDBRANCH   7   9
ENDBRANCH   1   7
BRANCH   4  16
ATOM     16  N   UNL     1       3.971   6.123   2.456  1.00  0.00     0.066 N 
ATOM     17  O   UNL     1       3.019   5.814   1.700  1.00  0.00    -0.258 OA
ATOM     18  O   UNL     1       4.372   5.364   3.369  1.00  0.00    -0.258 OA
ENDBRANCH   4  16
BRANCH   5  19
ATOM     19  O   UNL     1       6.269   9.336  -0.349  1.00  0.00    -0.504 OA
ATOM     20  H   UNL     1       6.312   8.559  -0.932  1.00  0.00     0.293 HD
ENDBRANCH   5  19
BRANCH   6  21
ATOM     21  O   UNL     1       5.023   6.891  -0.041  1.00  0.00    -0.500 OA
ATOM     22  H   UNL     1       5.641   6.151   0.066  1.00  0.00     0.294 HD
ENDBRANCH   6  21
TORSDOF 5
ENDMDL
MODEL 9
REMARK VINA RESULT:    -2.708      9.466     11.474
REMARK INTER + INTRA:          -4.203
REMARK INTER:                  -3.194
REMARK INTRA:                  -1.009
REMARK UNBOUND:                -0.861
REMARK SMILES Cc1ccc(C(=O)c2cc(O)c(O)c([N+](=O)[O-])c2)cc1
REMARK SMILES IDX 8 1 18 2 9 3 14 4 10 5 12 6 6 7 7 8 5 9 4 10 19 11 3 12
REMARK SMILES IDX 20 13 2 14 1 15 15 16 17 17 16 18 11 19 13 21
REMARK H PARENT 11 20 13 22
ROOT
ATOM      1  C   UNL     1       7.912  17.540   4.531  1.00  0.00     0.033 A 
ATOM      2  C   UNL     1       7.709  16.251   4.967  1.00  0.00     0.102 A 
ATOM      3  C   UNL     1       8.913  18.345   5.021  1.00  0.00     0.063 A 
ATOM      4  C   UNL     1       8.557  15.738   5.949  1.00  0.00     0.315 A 
ATOM      5  C   UNL     1       9.760  17.833   6.003  1.00  0.00     0.165 A 
ATOM      6  C   UNL     1       9.583  16.528   6.467  1.00  0.00     0.237 A 
ENDROOT
BRANCH   1   7
ATOM      7  C   UNL     1       7.004  18.089   3.480  1.00  0.00     0.193 C 
ATOM      8  O   UNL     1       7.532  18.568   2.465  1.00  0.00    -0.289 OA
BRANCH   7   9
ATOM      9  C   UNL     1       5.556  18.076   3.615  1.00  0.00     0.023 A 
ATOM     10  C   UNL     1       4.952  18.695   4.709  1.00  0.00     0.012 A 
ATOM     11  C   UNL     1       4.771  17.443   2.650  1.00  0.00     0.012 A 
ATOM     12  C   UNL     1       3.563  18.682   4.838  1.00  0.00     0.004 A 
ATOM     13  C   UNL     1       3.382  17.430   2.779  1.00  0.00     0.004 A 
ATOM     14  C   UNL     1       2.778  18.049   3.873  1.00  0.00    -0.051 A 
ATOM     15  C   UNL     1       1.294  18.035   4.013  1.00  0.00     0.044 C 
ENDBRANCH   7   9
ENDBRANCH   1   7
BRANCH   4  16
ATOM     16  N   UNL     1       8.360  14.408   6.410  1.00  0.00     0.066 N 
ATOM     17  O   UNL     1       7.894  13.554   5.617  1.00  0.00    -0.258 OA
ATOM     18  O   UNL     1       8.659  14.126   7.594  1.00  0.00    -0.258 OA
ENDBRANCH   4  16
BRANCH   5  19
ATOM     19  O   UNL     1      10.758  18.616   6.500  1.00  0.00    -0.504 OA
ATOM     20  H   UNL     1      11.465  18.701   5.839  1.00  0.00     0.293 HD
ENDBRANCH   5  19
BRANCH   6  21
ATOM     21  O   UNL     1      10.419  16.038   7.428  1.00  0.00    -0.500 OA
ATOM     22  H   UNL     1       9.984  15.309   7.897  1.00  0.00     0.294 HD
ENDBRANCH   6  21
TORSDOF 5
ENDMDL
