MODEL 1
REMARK VINA RESULT:    -6.425      0.000      0.000
REMARK INTER + INTRA:          -8.220
REMARK INTER:                  -7.551
REMARK INTRA:                  -0.669
REMARK UNBOUND:                -0.669
REMARK SMILES O=C(O)c1cc(-c2ccc(F)cc2F)ccc1O
REMARK SMILES IDX 6 1 5 2 15 3 4 4 17 5 16 6 7 7 13 8 12 9 8 10 10 11 9 12
REMARK SMILES IDX 14 13 11 14 2 15 1 16 3 17 18 19
REMARK H PARENT 3 18 18 20
ROOT
ATOM      1  C   UNL     1       3.608   7.479   2.767  1.00  0.00    -0.014 A 
ATOM      2  C   UNL     1       3.093   7.260   1.489  1.00  0.00     0.028 A 
ATOM      3  C   UNL     1       3.530   6.474   3.731  1.00  0.00     0.013 A 
ATOM      4  C   UNL     1       2.501   6.037   1.175  1.00  0.00     0.102 A 
ATOM      5  C   UNL     1       2.423   5.032   2.140  1.00  0.00     0.130 A 
ATOM      6  C   UNL     1       2.938   5.251   3.418  1.00  0.00     0.048 A 
ENDROOT
BRANCH   1   7
ATOM      7  C   UNL     1       4.221   8.748   3.093  1.00  0.00     0.018 A 
ATOM      8  C   UNL     1       3.796   9.464   4.213  1.00  0.00     0.133 A 
ATOM      9  C   UNL     1       4.390  10.688   4.524  1.00  0.00     0.079 A 
ATOM     10  C   UNL     1       5.240   9.254   2.287  1.00  0.00     0.015 A 
ATOM     11  C   UNL     1       5.408  11.194   3.717  1.00  0.00     0.126 A 
ATOM     12  C   UNL     1       5.833  10.477   2.599  1.00  0.00     0.040 A 
ATOM     13  F   UNL     1       2.816   8.993   4.997  1.00  0.00    -0.206 F 
ATOM     14  F   UNL     1       5.979  12.368   4.015  1.00  0.00    -0.207 F 
ENDBRANCH   1   7
BRANCH   4  15
ATOM     15  C   UNL     1       1.970   5.828  -0.165  1.00  0.00     0.339 C 
ATOM     16  O   UNL     1       0.820   5.467  -0.429  1.00  0.00    -0.246 OA
BRANCH  15  17
ATOM     17  O   UNL     1       2.893   6.079  -1.133  1.00  0.00    -0.478 OA
ATOM     18  H   UNL     1       3.794   6.178  -0.760  1.00  0.00     0.297 HD
ENDBRANCH  15  17
ENDBRANCH   4  15
BRANCH   5  19
ATOM     19  O   UNL     1       1.849   3.830   1.853  1.00  0.00    -0.507 OA
ATOM     20  H   UNL     1       1.068   3.708   2.420  1.00  0.00     0.293 HD
ENDBRANCH   5  19
TORSDOF 4
ENDMDL
MODEL 2
REMARK VINA RESULT:    -6.417      1.119      1.603
REMARK INTER + INTRA:          -8.212
REMARK INTER:                  -7.569
REMARK INTRA:                  -0.643
REMARK UNBOUND:                -0.669
REMARK SMILES O=C(O)c1cc(-c2ccc(F)cc2F)ccc1O
REMARK SMILES IDX 6 1 5 2 15 3 4 4 17 5 16 6 7 7 13 8 12 9 8 10 10 11 9 12
REMARK SMILES IDX 14 13 11 14 2 15 1 16 3 17 18 19
REMARK H PARENT 3 18 18 20
ROOT
ATOM      1  C   UNL     1       3.610   7.488   2.738  1.00  0.00    -0.014 A 
ATOM      2  C   UNL     1       3.093   7.263   1.463  1.00  0.00     0.028 A 
ATOM      3  C   UNL     1       3.533   6.488   3.708  1.00  0.00     0.013 A 
ATOM      4  C   UNL     1       2.498   6.039   1.157  1.00  0.00     0.102 A 
ATOM      5  C   UNL     1       2.421   5.039   2.127  1.00  0.00     0.130 A 
ATOM      6  C   UNL     1       2.939   5.264   3.403  1.00  0.00     0.048 A 
ENDROOT
BRANCH   1   7
ATOM      7  C   UNL     1       4.226   8.758   3.057  1.00  0.00     0.018 A 
ATOM      8  C   UNL     1       5.205   9.292   2.218  1.00  0.00     0.133 A 
ATOM      9  C   UNL     1       5.796  10.516   2.529  1.00  0.00     0.079 A 
ATOM     10  C   UNL     1       3.839   9.448   4.205  1.00  0.00     0.015 A 
ATOM     11  C   UNL     1       5.410  11.206   3.678  1.00  0.00     0.126 A 
ATOM     12  C   UNL     1       4.431  10.672   4.515  1.00  0.00     0.040 A 
ATOM     13  F   UNL     1       5.590   8.640   1.112  1.00  0.00    -0.206 F 
ATOM     14  F   UNL     1       5.977  12.382   3.977  1.00  0.00    -0.207 F 
ENDBRANCH   1   7
BRANCH   4  15
ATOM     15  C   UNL     1       1.964   5.824  -0.181  1.00  0.00     0.339 C 
ATOM     16  O   UNL     1       0.813   5.463  -0.441  1.00  0.00    -0.246 OA
BRANCH  15  17
ATOM     17  O   UNL     1       2.885   6.070  -1.152  1.00  0.00    -0.478 OA
ATOM     18  H   UNL     1       2.984   5.308  -1.761  1.00  0.00     0.297 HD
ENDBRANCH  15  17
ENDBRANCH   4  15
BRANCH   5  19
ATOM     19  O   UNL     1       1.844   3.836   1.848  1.00  0.00    -0.507 OA
ATOM     20  H   UNL     1       1.179   3.958   1.148  1.00  0.00     0.293 HD
ENDBRANCH   5  19
TORSDOF 4
ENDMDL
MODEL 3
REMARK VINA RESULT:    -6.412      1.651      3.122
REMARK INTER + INTRA:          -8.205
REMARK INTER:                  -7.549
REMARK INTRA:                  -0.656
REMARK UNBOUND:                -0.669
REMARK SMILES O=C(O)c1cc(-c2ccc(F)cc2F)ccc1O
REMARK SMILES IDX 6 1 5 2 15 3 4 4 17 5 16 6 7 7 13 8 12 9 8 10 10 11 9 12
REMARK SMILES IDX 14 13 11 14 2 15 1 16 3 17 18 19
REMARK H PARENT 3 18 18 20
ROOT
ATOM      1  C   UNL     1       3.533   7.542   2.644  1.00  0.00    -0.014 A 
ATOM      2  C   UNL     1       3.461   6.572   3.643  1.00  0.00     0.028 A 
ATOM      3  C   UNL     1       3.018   7.277   1.375  1.00  0.00     0.013 A 
ATOM      4  C   UNL     1       2.875   5.335   3.373  1.00  0.00     0.102 A 
ATOM      5  C   UNL     1       2.360   5.069   2.104  1.00  0.00     0.130 A 
ATOM      6  C   UNL     1       2.432   6.041   1.105  1.00  0.00     0.048 A 
ENDROOT
BRANCH   1   7
ATOM      7  C   UNL     1       4.142   8.825   2.922  1.00  0.00     0.018 A 
ATOM      8  C   UNL     1       5.143   9.322   2.086  1.00  0.00     0.133 A 
ATOM      9  C   UNL     1       5.727  10.559   2.358  1.00  0.00     0.079 A 
ATOM     10  C   UNL     1       3.727   9.565   4.029  1.00  0.00     0.015 A 
ATOM     11  C   UNL     1       5.313  11.299   3.465  1.00  0.00     0.126 A 
ATOM     12  C   UNL     1       4.312  10.802   4.300  1.00  0.00     0.040 A 
ATOM     13  F   UNL     1       5.555   8.622   1.020  1.00  0.00    -0.206 F 
ATOM     14  F   UNL     1       5.873  12.486   3.727  1.00  0.00    -0.207 F 
ENDBRANCH   1   7
BRANCH   4  15
ATOM     15  C   UNL     1       2.810   4.335   4.430  1.00  0.00     0.339 C 
ATOM     16  O   UNL     1       3.227   3.178   4.344  1.00  0.00    -0.246 OA
BRANCH  15  17
ATOM     17  O   UNL     1       2.226   4.815   5.562  1.00  0.00    -0.478 OA
ATOM     18  H   UNL     1       2.687   4.504   6.369  1.00  0.00     0.297 HD
ENDBRANCH  15  17
ENDBRANCH   4  15
BRANCH   5  19
ATOM     19  O   UNL     1       1.783   3.868   1.821  1.00  0.00    -0.507 OA
ATOM     20  H   UNL     1       2.473   3.244   1.535  1.00  0.00     0.293 HD
ENDBRANCH   5  19
TORSDOF 4
ENDMDL
MODEL 4
REMARK VINA RESULT:    -6.387      1.199      2.676
REMARK INTER + INTRA:          -8.176
REMARK INTER:                  -7.536
REMARK INTRA:                  -0.640
REMARK UNBOUND:                -0.669
REMARK SMILES O=C(O)c1cc(-c2ccc(F)cc2F)ccc1O
REMARK SMILES IDX 6 1 5 2 15 3 4 4 17 5 16 6 7 7 13 8 12 9 8 10 10 11 9 12
REMARK SMILES IDX 14 13 11 14 2 15 1 16 3 17 18 19
REMARK H PARENT 3 18 18 20
ROOT
ATOM      1  C   UNL     1       3.527   7.548   2.675  1.00  0.00    -0.014 A 
ATOM      2  C   UNL     1       3.458   6.570   3.667  1.00  0.00     0.028 A 
ATOM      3  C   UNL     1       3.011   7.290   1.405  1.00  0.00     0.013 A 
ATOM      4  C   UNL     1       2.872   5.335   3.390  1.00  0.00     0.102 A 
ATOM      5  C   UNL     1       2.356   5.077   2.120  1.00  0.00     0.130 A 
ATOM      6  C   UNL     1       2.425   6.056   1.127  1.00  0.00     0.048 A 
ENDROOT
BRANCH   1   7
ATOM      7  C   UNL     1       4.136   8.829   2.961  1.00  0.00     0.018 A 
ATOM      8  C   UNL     1       3.758   9.546   4.097  1.00  0.00     0.133 A 
ATOM      9  C   UNL     1       4.347  10.781   4.369  1.00  0.00     0.079 A 
ATOM     10  C   UNL     1       5.103   9.346   2.100  1.00  0.00     0.015 A 
ATOM     11  C   UNL     1       5.314  11.298   3.507  1.00  0.00     0.126 A 
ATOM     12  C   UNL     1       5.692  10.580   2.372  1.00  0.00     0.040 A 
ATOM     13  F   UNL     1       2.828   9.064   4.934  1.00  0.00    -0.206 F 
ATOM     14  F   UNL     1       5.880  12.483   3.768  1.00  0.00    -0.207 F 
ENDBRANCH   1   7
BRANCH   4  15
ATOM     15  C   UNL     1       2.810   4.327   4.440  1.00  0.00     0.339 C 
ATOM     16  O   UNL     1       3.226   3.170   4.344  1.00  0.00    -0.246 OA
BRANCH  15  17
ATOM     17  O   UNL     1       2.229   4.799   5.576  1.00  0.00    -0.478 OA
ATOM     18  H   UNL     1       1.302   5.078   5.424  1.00  0.00     0.297 HD
ENDBRANCH  15  17
ENDBRANCH   4  15
BRANCH   5  19
ATOM     19  O   UNL     1       1.779   3.877   1.829  1.00  0.00    -0.507 OA
ATOM     20  H   UNL     1       0.928   3.812   2.296  1.00  0.00     0.293 HD
ENDBRANCH   5  19
TORSDOF 4
ENDMDL
MODEL 5
REMARK VINA RESULT:    -4.116      4.407      6.648
REMARK INTER + INTRA:          -5.507
REMARK INTER:                  -4.428
REMARK INTRA:                  -1.079
REMARK UNBOUND:                -0.669
REMARK SMILES O=C(O)c1cc(-c2ccc(F)cc2F)ccc1O
REMARK SMILES IDX 6 1 5 2 15 3 4 4 17 5 16 6 7 7 13 8 12 9 8 10 10 11 9 12
REMARK SMILES IDX 14 13 11 14 2 15 1 16 3 17 18 19
REMARK H PARENT 3 18 18 20
ROOT
ATOM      1  C   UNL     1       4.686   9.410   3.528  1.00  0.00    -0.014 A 
ATOM      2  C   UNL     1       5.782   9.673   4.350  1.00  0.00     0.028 A 
ATOM      3  C   UNL     1       4.084  10.446   2.815  1.00  0.00     0.013 A 
ATOM      4  C   UNL     1       6.276  10.973   4.458  1.00  0.00     0.102 A 
ATOM      5  C   UNL     1       5.673  12.010   3.745  1.00  0.00     0.130 A 
ATOM      6  C   UNL     1       4.577  11.746   2.923  1.00  0.00     0.048 A 
ENDROOT
BRANCH   1   7
ATOM      7  C   UNL     1       4.173   8.061   3.416  1.00  0.00     0.018 A 
ATOM      8  C   UNL     1       3.117   7.644   4.227  1.00  0.00     0.133 A 
ATOM      9  C   UNL     1       2.625   6.344   4.116  1.00  0.00     0.079 A 
ATOM     10  C   UNL     1       4.735   7.179   2.494  1.00  0.00     0.015 A 
ATOM     11  C   UNL     1       3.188   5.461   3.195  1.00  0.00     0.126 A 
ATOM     12  C   UNL     1       4.243   5.879   2.383  1.00  0.00     0.040 A 
ATOM     13  F   UNL     1       2.567   8.479   5.120  1.00  0.00    -0.206 F 
ATOM     14  F   UNL     1       2.716   4.212   3.087  1.00  0.00    -0.207 F 
ENDBRANCH   1   7
BRANCH   4  15
ATOM     15  C   UNL     1       7.421  11.228   5.321  1.00  0.00     0.339 C 
ATOM     16  O   UNL     1       7.912  12.337   5.548  1.00  0.00    -0.246 OA
BRANCH  15  17
ATOM     17  O   UNL     1       7.917  10.088   5.875  1.00  0.00    -0.478 OA
ATOM     18  H   UNL     1       8.644  10.274   6.505  1.00  0.00     0.297 HD
ENDBRANCH  15  17
ENDBRANCH   4  15
BRANCH   5  19
ATOM     19  O   UNL     1       6.141  13.287   3.837  1.00  0.00    -0.507 OA
ATOM     20  H   UNL     1       5.428  13.863   4.165  1.00  0.00     0.293 HD
ENDBRANCH   5  19
TORSDOF 4
ENDMDL
MODEL 6
REMARK VINA RESULT:    -4.057      4.184      6.424
REMARK INTER + INTRA:          -5.438
REMARK INTER:                  -4.353
REMARK INTRA:                  -1.085
REMARK UNBOUND:                -0.669
REMARK SMILES O=C(O)c1cc(-c2ccc(F)cc2F)ccc1O
REMARK SMILES IDX 6 1 5 2 15 3 4 4 17 5 16 6 7 7 13 8 12 9 8 10 10 11 9 12
REMARK SMILES IDX 14 13 11 14 2 15 1 16 3 17 18 19
REMARK H PARENT 3 18 18 20
ROOT
ATOM      1  C   UNL     1       4.375   9.669   2.888  1.00  0.00    -0.014 A 
ATOM      2  C   UNL     1       3.949  10.894   2.376  1.00  0.00     0.028 A 
ATOM      3  C   UNL     1       5.438   9.622   3.790  1.00  0.00     0.013 A 
ATOM      4  C   UNL     1       4.586  12.073   2.766  1.00  0.00     0.102 A 
ATOM      5  C   UNL     1       5.648  12.026   3.669  1.00  0.00     0.130 A 
ATOM      6  C   UNL     1       6.074  10.799   4.181  1.00  0.00     0.048 A 
ENDROOT
BRANCH   1   7
ATOM      7  C   UNL     1       3.717   8.446   2.483  1.00  0.00     0.018 A 
ATOM      8  C   UNL     1       4.190   7.726   1.385  1.00  0.00     0.133 A 
ATOM      9  C   UNL     1       3.552   6.548   0.997  1.00  0.00     0.079 A 
ATOM     10  C   UNL     1       2.608   7.986   3.193  1.00  0.00     0.015 A 
ATOM     11  C   UNL     1       2.443   6.089   1.707  1.00  0.00     0.126 A 
ATOM     12  C   UNL     1       1.971   6.808   2.805  1.00  0.00     0.040 A 
ATOM     13  F   UNL     1       5.253   8.156   0.690  1.00  0.00    -0.206 F 
ATOM     14  F   UNL     1       1.830   4.958   1.336  1.00  0.00    -0.207 F 
ENDBRANCH   1   7
BRANCH   4  15
ATOM     15  C   UNL     1       4.125  13.342   2.220  1.00  0.00     0.339 C 
ATOM     16  O   UNL     1       4.719  14.419   2.320  1.00  0.00    -0.246 OA
BRANCH  15  17
ATOM     17  O   UNL     1       2.938  13.225   1.566  1.00  0.00    -0.478 OA
ATOM     18  H   UNL     1       2.330  13.965   1.777  1.00  0.00     0.297 HD
ENDBRANCH  15  17
ENDBRANCH   4  15
BRANCH   5  19
ATOM     19  O   UNL     1       6.283  13.166   4.063  1.00  0.00    -0.507 OA
ATOM     20  H   UNL     1       7.203  13.142   3.749  1.00  0.00     0.293 HD
ENDBRANCH   5  19
TORSDOF 4
ENDMDL
MODEL 7
REMARK VINA RESULT:    -3.976      4.437      6.780
REMARK INTER + INTRA:          -5.342
REMARK INTER:                  -4.290
REMARK INTRA:                  -1.052
REMARK UNBOUND:                -0.669
REMARK SMILES O=C(O)c1cc(-c2ccc(F)cc2F)ccc1O
REMARK SMILES IDX 6 1 5 2 15 3 4 4 17 5 16 6 7 7 13 8 12 9 8 10 10 11 9 12
REMARK SMILES IDX 14 13 11 14 2 15 1 16 3 17 18 19
REMARK H PARENT 3 18 18 20
ROOT
ATOM      1  C   UNL     1       4.621   9.431   3.283  1.00  0.00    -0.014 A 
ATOM      2  C   UNL     1       5.703   9.547   4.153  1.00  0.00     0.028 A 
ATOM      3  C   UNL     1       4.093  10.568   2.670  1.00  0.00     0.013 A 
ATOM      4  C   UNL     1       6.259  10.801   4.412  1.00  0.00     0.102 A 
ATOM      5  C   UNL     1       5.731  11.937   3.800  1.00  0.00     0.130 A 
ATOM      6  C   UNL     1       4.647  11.821   2.928  1.00  0.00     0.048 A 
ENDROOT
BRANCH   1   7
ATOM      7  C   UNL     1       4.043   8.132   3.015  1.00  0.00     0.018 A 
ATOM      8  C   UNL     1       4.363   7.451   1.840  1.00  0.00     0.133 A 
ATOM      9  C   UNL     1       3.804   6.199   1.585  1.00  0.00     0.079 A 
ATOM     10  C   UNL     1       3.165   7.559   3.935  1.00  0.00     0.015 A 
ATOM     11  C   UNL     1       2.925   5.627   2.505  1.00  0.00     0.126 A 
ATOM     12  C   UNL     1       2.606   6.308   3.680  1.00  0.00     0.040 A 
ATOM     13  F   UNL     1       5.203   7.989   0.944  1.00  0.00    -0.206 F 
ATOM     14  F   UNL     1       2.388   4.425   2.261  1.00  0.00    -0.207 F 
ENDBRANCH   1   7
BRANCH   4  15
ATOM     15  C   UNL     1       7.390  10.901   5.324  1.00  0.00     0.339 C 
ATOM     16  O   UNL     1       7.856  11.952   5.770  1.00  0.00    -0.246 OA
BRANCH  15  17
ATOM     17  O   UNL     1       7.902   9.683   5.652  1.00  0.00    -0.478 OA
ATOM     18  H   UNL     1       8.230   9.202   4.863  1.00  0.00     0.297 HD
ENDBRANCH  15  17
ENDBRANCH   4  15
BRANCH   5  19
ATOM     19  O   UNL     1       6.260  13.171   4.039  1.00  0.00    -0.507 OA
ATOM     20  H   UNL     1       6.745  13.150   4.882  1.00  0.00     0.293 HD
ENDBRANCH   5  19
TORSDOF 4
ENDMDL
