MODEL 1
REMARK VINA RESULT:    -5.011      0.000      0.000
REMARK INTER + INTRA:          -7.052
REMARK INTER:                  -6.183
REMARK INTRA:                  -0.870
REMARK UNBOUND:                -0.870
REMARK SMILES Cc1ccc(C(=O)c2cc(O)c(O)c([N+](=O)[O-])c2)cc1
REMARK SMILES IDX 8 1 18 2 9 3 14 4 10 5 12 6 6 7 7 8 5 9 4 10 19 11 3 12
REMARK SMILES IDX 20 13 2 14 1 15 15 16 17 17 16 18 11 19 13 21
REMARK H PARENT 11 20 13 22
ROOT
ATOM      1  C   UNL     1       2.725  -0.304   6.232  1.00  0.00     0.033 A 
ATOM      2  C   UNL     1       1.430   0.086   6.484  1.00  0.00     0.102 A 
ATOM      3  C   UNL     1       3.151  -0.722   4.994  1.00  0.00     0.063 A 
ATOM      4  C   UNL     1       0.509   0.058   5.436  1.00  0.00     0.315 A 
ATOM      5  C   UNL     1       2.230  -0.751   3.946  1.00  0.00     0.165 A 
ATOM      6  C   UNL     1       0.909  -0.360   4.167  1.00  0.00     0.237 A 
ENDROOT
BRANCH   1   7
ATOM      7  C   UNL     1       3.711  -0.274   7.354  1.00  0.00     0.193 C 
ATOM      8  O   UNL     1       4.866   0.087   7.086  1.00  0.00    -0.289 OA
BRANCH   7   9
ATOM      9  C   UNL     1       3.357  -0.648   8.714  1.00  0.00     0.023 A 
ATOM     10  C   UNL     1       3.427  -1.984   9.111  1.00  0.00     0.012 A 
ATOM     11  C   UNL     1       2.947   0.328   9.622  1.00  0.00     0.012 A 
ATOM     12  C   UNL     1       3.087  -2.342  10.415  1.00  0.00     0.004 A 
ATOM     13  C   UNL     1       2.607  -0.030  10.927  1.00  0.00     0.004 A 
ATOM     14  C   UNL     1       2.677  -1.366  11.324  1.00  0.00    -0.051 A 
ATOM     15  C   UNL     1       2.313  -1.750  12.717  1.00  0.00     0.044 C 
ENDBRANCH   7   9
ENDBRANCH   1   7
BRANCH   4  16
ATOM     16  N   UNL     1      -0.833   0.459   5.681  1.00  0.00     0.066 N 
ATOM     17  O   UNL     1      -1.055   1.335   6.552  1.00  0.00    -0.258 OA
ATOM     18  O   UNL     1      -1.755  -0.074   5.020  1.00  0.00    -0.258 OA
ENDBRANCH   4  16
BRANCH   5  19
ATOM     19  O   UNL     1       2.635  -1.161   2.711  1.00  0.00    -0.504 OA
ATOM     20  H   UNL     1       3.599  -1.070   2.638  1.00  0.00     0.293 HD
ENDBRANCH   5  19
BRANCH   6  21
ATOM     21  O   UNL     1       0.017  -0.392   3.135  1.00  0.00    -0.500 OA
ATOM     22  H   UNL     1       0.139  -1.208   2.624  1.00  0.00     0.294 HD
ENDBRANCH   6  21
TORSDOF 5
ENDMDL
MODEL 2
REMARK VINA RESULT:    -4.971      2.069      3.542
REMARK INTER + INTRA:          -7.003
REMARK INTER:                  -6.116
REMARK INTRA:                  -0.886
REMARK UNBOUND:                -0.870
REMARK SMILES Cc1ccc(C(=O)c2cc(O)c(O)c([N+](=O)[O-])c2)cc1
REMARK SMILES IDX 8 1 18 2 9 3 14 4 10 5 12 6 6 7 7 8 5 9 4 10 19 11 3 12
REMARK SMILES IDX 20 13 2 14 1 15 15 16 17 17 16 18 11 19 13 21
REMARK H PARENT 11 20 13 22
ROOT
ATOM      1  C   UNL     1       1.177  -1.165   6.979  1.00  0.00     0.033 A 
ATOM      2  C   UNL     1       2.068  -1.528   5.995  1.00  0.00     0.102 A 
ATOM      3  C   UNL     1      -0.014  -0.534   6.711  1.00  0.00     0.063 A 
ATOM      4  C   UNL     1       1.747  -1.245   4.668  1.00  0.00     0.315 A 
ATOM      5  C   UNL     1      -0.335  -0.250   5.383  1.00  0.00     0.165 A 
ATOM      6  C   UNL     1       0.546  -0.606   4.361  1.00  0.00     0.237 A 
ENDROOT
BRANCH   1   7
ATOM      7  C   UNL     1       1.520  -1.468   8.401  1.00  0.00     0.193 C 
ATOM      8  O   UNL     1       0.607  -1.881   9.131  1.00  0.00    -0.289 OA
BRANCH   7   9
ATOM      9  C   UNL     1       2.863  -1.296   8.933  1.00  0.00     0.023 A 
ATOM     10  C   UNL     1       3.272  -0.048   9.402  1.00  0.00     0.012 A 
ATOM     11  C   UNL     1       3.741  -2.379   8.973  1.00  0.00     0.012 A 
ATOM     12  C   UNL     1       4.560   0.116   9.913  1.00  0.00     0.004 A 
ATOM     13  C   UNL     1       5.029  -2.215   9.484  1.00  0.00     0.004 A 
ATOM     14  C   UNL     1       5.439  -0.967   9.954  1.00  0.00    -0.051 A 
ATOM     15  C   UNL     1       6.815  -0.790  10.498  1.00  0.00     0.044 C 
ENDBRANCH   7   9
ENDBRANCH   1   7
BRANCH   4  16
ATOM     16  N   UNL     1       2.657  -1.614   3.640  1.00  0.00     0.066 N 
ATOM     17  O   UNL     1       2.830  -0.833   2.673  1.00  0.00    -0.258 OA
ATOM     18  O   UNL     1       3.261  -2.709   3.730  1.00  0.00    -0.258 OA
ENDBRANCH   4  16
BRANCH   5  19
ATOM     19  O   UNL     1      -1.512   0.375   5.098  1.00  0.00    -0.504 OA
ATOM     20  H   UNL     1      -1.342   1.306   4.879  1.00  0.00     0.293 HD
ENDBRANCH   5  19
BRANCH   6  21
ATOM     21  O   UNL     1       0.221  -0.323   3.066  1.00  0.00    -0.500 OA
ATOM     22  H   UNL     1       0.960   0.137   2.637  1.00  0.00     0.294 HD
ENDBRANCH   6  21
TORSDOF 5
ENDMDL
MODEL 3
REMARK VINA RESULT:    -3.637      1.909      2.489
REMARK INTER + INTRA:          -5.357
REMARK INTER:                  -4.548
REMARK INTRA:                  -0.809
REMARK UNBOUND:                -0.870
REMARK SMILES Cc1ccc(C(=O)c2cc(O)c(O)c([N+](=O)[O-])c2)cc1
REMARK SMILES IDX 8 1 18 2 9 3 14 4 10 5 12 6 6 7 7 8 5 9 4 10 19 11 3 12
REMARK SMILES IDX 20 13 2 14 1 15 15 16 17 17 16 18 11 19 13 21
REMARK H PARENT 11 20 13 22
ROOT
ATOM      1  C   UNL     1       1.416  -1.270   7.167  1.00  0.00     0.033 A 
ATOM      2  C   UNL     1       0.298  -0.492   6.970  1.00  0.00     0.102 A 
ATOM      3  C   UNL     1       2.170  -1.769   6.132  1.00  0.00     0.063 A 
ATOM      4  C   UNL     1      -0.087  -0.197   5.663  1.00  0.00     0.315 A 
ATOM      5  C   UNL     1       1.784  -1.474   4.823  1.00  0.00     0.165 A 
ATOM      6  C   UNL     1       0.656  -0.687   4.589  1.00  0.00     0.237 A 
ENDROOT
BRANCH   1   7
ATOM      7  C   UNL     1       1.829  -1.586   8.568  1.00  0.00     0.193 C 
ATOM      8  O   UNL     1       0.969  -2.073   9.318  1.00  0.00    -0.289 OA
BRANCH   7   9
ATOM      9  C   UNL     1       3.176  -1.345   9.057  1.00  0.00     0.023 A 
ATOM     10  C   UNL     1       3.529  -0.083   9.536  1.00  0.00     0.012 A 
ATOM     11  C   UNL     1       4.117  -2.375   9.049  1.00  0.00     0.012 A 
ATOM     12  C   UNL     1       4.822   0.149  10.005  1.00  0.00     0.004 A 
ATOM     13  C   UNL     1       5.410  -2.144   9.518  1.00  0.00     0.004 A 
ATOM     14  C   UNL     1       5.763  -0.882   9.997  1.00  0.00    -0.051 A 
ATOM     15  C   UNL     1       7.145  -0.634  10.498  1.00  0.00     0.044 C 
ENDBRANCH   7   9
ENDBRANCH   1   7
BRANCH   4  16
ATOM     16  N   UNL     1      -1.240   0.606   5.444  1.00  0.00     0.066 N 
ATOM     17  O   UNL     1      -1.242   1.789   5.860  1.00  0.00    -0.258 OA
ATOM     18  O   UNL     1      -2.219   0.108   4.840  1.00  0.00    -0.258 OA
ENDBRANCH   4  16
BRANCH   5  19
ATOM     19  O   UNL     1       2.520  -1.960   3.784  1.00  0.00    -0.504 OA
ATOM     20  H   UNL     1       2.268  -2.882   3.611  1.00  0.00     0.293 HD
ENDBRANCH   5  19
BRANCH   6  21
ATOM     21  O   UNL     1       0.289  -0.405   3.305  1.00  0.00    -0.500 OA
ATOM     22  H   UNL     1      -0.434  -0.993   3.036  1.00  0.00     0.294 HD
ENDBRANCH   6  21
TORSDOF 5
ENDMDL
MODEL 4
REMARK VINA RESULT:    -3.484      1.404      2.841
REMARK INTER + INTRA:          -5.168
REMARK INTER:                  -4.854
REMARK INTRA:                  -0.314
REMARK UNBOUND:                -0.870
REMARK SMILES Cc1ccc(C(=O)c2cc(O)c(O)c([N+](=O)[O-])c2)cc1
REMARK SMILES IDX 8 1 18 2 9 3 14 4 10 5 12 6 6 7 7 8 5 9 4 10 19 11 3 12
REMARK SMILES IDX 20 13 2 14 1 15 15 16 17 17 16 18 11 19 13 21
REMARK H PARENT 11 20 13 22
ROOT
ATOM      1  C   UNL     1       2.747  -0.313   6.732  1.00  0.00     0.033 A 
ATOM      2  C   UNL     1       3.163  -0.934   5.577  1.00  0.00     0.102 A 
ATOM      3  C   UNL     1       1.538   0.332   6.838  1.00  0.00     0.063 A 
ATOM      4  C   UNL     1       2.321  -0.909   4.465  1.00  0.00     0.315 A 
ATOM      5  C   UNL     1       0.696   0.358   5.726  1.00  0.00     0.165 A 
ATOM      6  C   UNL     1       1.087  -0.263   4.539  1.00  0.00     0.237 A 
ENDROOT
BRANCH   1   7
ATOM      7  C   UNL     1       3.649  -0.341   7.922  1.00  0.00     0.193 C 
ATOM      8  O   UNL     1       4.811   0.063   7.765  1.00  0.00    -0.289 OA
BRANCH   7   9
ATOM      9  C   UNL     1       3.208  -0.815   9.224  1.00  0.00     0.023 A 
ATOM     10  C   UNL     1       4.068  -0.746  10.320  1.00  0.00     0.012 A 
ATOM     11  C   UNL     1       1.925  -1.339   9.377  1.00  0.00     0.012 A 
ATOM     12  C   UNL     1       3.645  -1.201  11.569  1.00  0.00     0.004 A 
ATOM     13  C   UNL     1       1.500  -1.794  10.627  1.00  0.00     0.004 A 
ATOM     14  C   UNL     1       2.361  -1.725  11.722  1.00  0.00    -0.051 A 
ATOM     15  C   UNL     1       1.909  -2.212  13.057  1.00  0.00     0.044 C 
ENDBRANCH   7   9
ENDBRANCH   1   7
BRANCH   4  16
ATOM     16  N   UNL     1       2.737  -1.546   3.264  1.00  0.00     0.066 N 
ATOM     17  O   UNL     1       2.977  -2.778   3.284  1.00  0.00    -0.258 OA
ATOM     18  O   UNL     1       2.852  -0.860   2.222  1.00  0.00    -0.258 OA
ENDBRANCH   4  16
BRANCH   5  19
ATOM     19  O   UNL     1      -0.507   0.992   5.814  1.00  0.00    -0.504 OA
ATOM     20  H   UNL     1      -1.224   0.342   5.735  1.00  0.00     0.293 HD
ENDBRANCH   5  19
BRANCH   6  21
ATOM     21  O   UNL     1       0.254  -0.231   3.459  1.00  0.00    -0.500 OA
ATOM     22  H   UNL     1      -0.429  -0.912   3.554  1.00  0.00     0.294 HD
ENDBRANCH   6  21
TORSDOF 5
ENDMDL
MODEL 5
REMARK VINA RESULT:    -2.964      3.730      6.783
REMARK INTER + INTRA:          -4.527
REMARK INTER:                  -3.524
REMARK INTRA:                  -1.003
REMARK UNBOUND:                -0.870
REMARK SMILES Cc1ccc(C(=O)c2cc(O)c(O)c([N+](=O)[O-])c2)cc1
REMARK SMILES IDX 8 1 18 2 9 3 14 4 10 5 12 6 6 7 7 8 5 9 4 10 19 11 3 12
REMARK SMILES IDX 20 13 2 14 1 15 15 16 17 17 16 18 11 19 13 21
REMARK H PARENT 11 20 13 22
ROOT
ATOM      1  C   UNL     1       3.405  -0.405   9.680  1.00  0.00     0.033 A 
ATOM      2  C   UNL     1       2.771  -0.828  10.825  1.00  0.00     0.102 A 
ATOM      3  C   UNL     1       4.774  -0.378   9.551  1.00  0.00     0.063 A 
ATOM      4  C   UNL     1       3.550  -1.249  11.902  1.00  0.00     0.315 A 
ATOM      5  C   UNL     1       5.553  -0.798  10.629  1.00  0.00     0.165 A 
ATOM      6  C   UNL     1       4.941  -1.234  11.805  1.00  0.00     0.237 A 
ENDROOT
BRANCH   1   7
ATOM      7  C   UNL     1       2.571   0.045   8.525  1.00  0.00     0.193 C 
ATOM      8  O   UNL     1       1.756   0.957   8.734  1.00  0.00    -0.289 OA
BRANCH   7   9
ATOM      9  C   UNL     1       2.689  -0.543   7.201  1.00  0.00     0.023 A 
ATOM     10  C   UNL     1       2.559  -1.922   7.036  1.00  0.00     0.012 A 
ATOM     11  C   UNL     1       2.933   0.272   6.095  1.00  0.00     0.012 A 
ATOM     12  C   UNL     1       2.672  -2.485   5.765  1.00  0.00     0.004 A 
ATOM     13  C   UNL     1       3.047  -0.292   4.824  1.00  0.00     0.004 A 
ATOM     14  C   UNL     1       2.916  -1.671   4.658  1.00  0.00    -0.051 A 
ATOM     15  C   UNL     1       3.039  -2.274   3.301  1.00  0.00     0.044 C 
ENDBRANCH   7   9
ENDBRANCH   1   7
BRANCH   4  16
ATOM     16  N   UNL     1       2.909  -1.690  13.092  1.00  0.00     0.066 N 
ATOM     17  O   UNL     1       3.493  -1.530  14.191  1.00  0.00    -0.258 OA
ATOM     18  O   UNL     1       1.778  -2.224  13.009  1.00  0.00    -0.258 OA
ENDBRANCH   4  16
BRANCH   5  19
ATOM     19  O   UNL     1       6.911  -0.778  10.520  1.00  0.00    -0.504 OA
ATOM     20  H   UNL     1       7.164  -0.887   9.588  1.00  0.00     0.293 HD
ENDBRANCH   5  19
BRANCH   6  21
ATOM     21  O   UNL     1       5.715  -1.643  12.852  1.00  0.00    -0.500 OA
ATOM     22  H   UNL     1       5.244  -1.486  13.686  1.00  0.00     0.294 HD
ENDBRANCH   6  21
TORSDOF 5
ENDMDL
MODEL 6
REMARK VINA RESULT:    -2.949      3.794      7.090
REMARK INTER + INTRA:          -4.508
REMARK INTER:                  -3.505
REMARK INTRA:                  -1.003
REMARK UNBOUND:                -0.870
REMARK SMILES Cc1ccc(C(=O)c2cc(O)c(O)c([N+](=O)[O-])c2)cc1
REMARK SMILES IDX 8 1 18 2 9 3 14 4 10 5 12 6 6 7 7 8 5 9 4 10 19 11 3 12
REMARK SMILES IDX 20 13 2 14 1 15 15 16 17 17 16 18 11 19 13 21
REMARK H PARENT 11 20 13 22
ROOT
ATOM      1  C   UNL     1       3.582  -1.693   9.442  1.00  0.00     0.033 A 
ATOM      2  C   UNL     1       4.916  -1.425   9.643  1.00  0.00     0.102 A 
ATOM      3  C   UNL     1       2.681  -1.818  10.473  1.00  0.00     0.063 A 
ATOM      4  C   UNL     1       5.375  -1.273  10.952  1.00  0.00     0.315 A 
ATOM      5  C   UNL     1       3.141  -1.667  11.782  1.00  0.00     0.165 A 
ATOM      6  C   UNL     1       4.488  -1.394  12.021  1.00  0.00     0.237 A 
ENDROOT
BRANCH   1   7
ATOM      7  C   UNL     1       3.090  -1.856   8.040  1.00  0.00     0.193 C 
ATOM      8  O   UNL     1       3.651  -2.708   7.336  1.00  0.00    -0.289 OA
BRANCH   7   9
ATOM      9  C   UNL     1       1.998  -1.062   7.500  1.00  0.00     0.023 A 
ATOM     10  C   UNL     1       2.063   0.331   7.539  1.00  0.00     0.012 A 
ATOM     11  C   UNL     1       0.886  -1.693   6.943  1.00  0.00     0.012 A 
ATOM     12  C   UNL     1       1.016   1.092   7.020  1.00  0.00     0.004 A 
ATOM     13  C   UNL     1      -0.162  -0.931   6.424  1.00  0.00     0.004 A 
ATOM     14  C   UNL     1      -0.097   0.462   6.462  1.00  0.00    -0.051 A 
ATOM     15  C   UNL     1      -1.217   1.276   5.910  1.00  0.00     0.044 C 
ENDBRANCH   7   9
ENDBRANCH   1   7
BRANCH   4  16
ATOM     16  N   UNL     1       6.752  -0.996  11.176  1.00  0.00     0.066 N 
ATOM     17  O   UNL     1       7.285  -1.395  12.239  1.00  0.00    -0.258 OA
ATOM     18  O   UNL     1       7.392  -0.362  10.305  1.00  0.00    -0.258 OA
ENDBRANCH   4  16
BRANCH   5  19
ATOM     19  O   UNL     1       2.263  -1.787  12.816  1.00  0.00    -0.504 OA
ATOM     20  H   UNL     1       1.665  -2.535  12.651  1.00  0.00     0.293 HD
ENDBRANCH   5  19
BRANCH   6  21
ATOM     21  O   UNL     1       4.925  -1.247  13.305  1.00  0.00    -0.500 OA
ATOM     22  H   UNL     1       4.209  -0.894  13.855  1.00  0.00     0.294 HD
ENDBRANCH   6  21
TORSDOF 5
ENDMDL
MODEL 7
REMARK VINA RESULT:    -2.928      3.574      7.255
REMARK INTER + INTRA:          -4.482
REMARK INTER:                  -3.490
REMARK INTRA:                  -0.992
REMARK UNBOUND:                -0.870
REMARK SMILES Cc1ccc(C(=O)c2cc(O)c(O)c([N+](=O)[O-])c2)cc1
REMARK SMILES IDX 8 1 18 2 9 3 14 4 10 5 12 6 6 7 7 8 5 9 4 10 19 11 3 12
REMARK SMILES IDX 20 13 2 14 1 15 15 16 17 17 16 18 11 19 13 21
REMARK H PARENT 11 20 13 22
ROOT
ATOM      1  C   UNL     1       3.435  -0.430   9.732  1.00  0.00     0.033 A 
ATOM      2  C   UNL     1       4.801  -0.361   9.590  1.00  0.00     0.102 A 
ATOM      3  C   UNL     1       2.826  -0.890  10.875  1.00  0.00     0.063 A 
ATOM      4  C   UNL     1       5.604  -0.775  10.653  1.00  0.00     0.315 A 
ATOM      5  C   UNL     1       3.629  -1.304  11.939  1.00  0.00     0.165 A 
ATOM      6  C   UNL     1       5.019  -1.246  11.827  1.00  0.00     0.237 A 
ENDROOT
BRANCH   1   7
ATOM      7  C   UNL     1       2.574   0.012   8.593  1.00  0.00     0.193 C 
ATOM      8  O   UNL     1       1.740   0.901   8.823  1.00  0.00    -0.289 OA
BRANCH   7   9
ATOM      9  C   UNL     1       2.690  -0.559   7.261  1.00  0.00     0.023 A 
ATOM     10  C   UNL     1       2.913   0.272   6.163  1.00  0.00     0.012 A 
ATOM     11  C   UNL     1       2.578  -1.937   7.081  1.00  0.00     0.012 A 
ATOM     12  C   UNL     1       3.024  -0.276   4.885  1.00  0.00     0.004 A 
ATOM     13  C   UNL     1       2.689  -2.486   5.803  1.00  0.00     0.004 A 
ATOM     14  C   UNL     1       2.912  -1.655   4.705  1.00  0.00    -0.051 A 
ATOM     15  C   UNL     1       3.030  -2.240   3.338  1.00  0.00     0.044 C 
ENDBRANCH   7   9
ENDBRANCH   1   7
BRANCH   4  16
ATOM     16  N   UNL     1       7.018  -0.708  10.521  1.00  0.00     0.066 N 
ATOM     17  O   UNL     1       7.525  -0.803   9.377  1.00  0.00    -0.258 OA
ATOM     18  O   UNL     1       7.717  -0.556  11.550  1.00  0.00    -0.258 OA
ENDBRANCH   4  16
BRANCH   5  19
ATOM     19  O   UNL     1       3.043  -1.762  13.080  1.00  0.00    -0.504 OA
ATOM     20  H   UNL     1       2.730  -1.010  13.610  1.00  0.00     0.293 HD
ENDBRANCH   5  19
BRANCH   6  21
ATOM     21  O   UNL     1       5.793  -1.653  12.874  1.00  0.00    -0.500 OA
ATOM     22  H   UNL     1       5.284  -1.598  13.698  1.00  0.00     0.294 HD
ENDBRANCH   6  21
TORSDOF 5
ENDMDL
MODEL 8
REMARK VINA RESULT:    -2.903      3.744      6.574
REMARK INTER + INTRA:          -4.452
REMARK INTER:                  -3.456
REMARK INTRA:                  -0.995
REMARK UNBOUND:                -0.870
REMARK SMILES Cc1ccc(C(=O)c2cc(O)c(O)c([N+](=O)[O-])c2)cc1
REMARK SMILES IDX 8 1 18 2 9 3 14 4 10 5 12 6 6 7 7 8 5 9 4 10 19 11 3 12
REMARK SMILES IDX 20 13 2 14 1 15 15 16 17 17 16 18 11 19 13 21
REMARK H PARENT 11 20 13 22
ROOT
ATOM      1  C   UNL     1       3.615  -1.669   9.494  1.00  0.00     0.033 A 
ATOM      2  C   UNL     1       2.701  -1.842  10.507  1.00  0.00     0.102 A 
ATOM      3  C   UNL     1       4.935  -1.362   9.724  1.00  0.00     0.063 A 
ATOM      4  C   UNL     1       3.132  -1.701  11.826  1.00  0.00     0.315 A 
ATOM      5  C   UNL     1       5.367  -1.220  11.043  1.00  0.00     0.165 A 
ATOM      6  C   UNL     1       4.465  -1.390  12.094  1.00  0.00     0.237 A 
ENDROOT
BRANCH   1   7
ATOM      7  C   UNL     1       3.153  -1.820   8.081  1.00  0.00     0.193 C 
ATOM      8  O   UNL     1       3.748  -2.646   7.373  1.00  0.00    -0.289 OA
BRANCH   7   9
ATOM      9  C   UNL     1       2.053  -1.043   7.533  1.00  0.00     0.023 A 
ATOM     10  C   UNL     1       0.952  -1.691   6.973  1.00  0.00     0.012 A 
ATOM     11  C   UNL     1       2.098   0.351   7.568  1.00  0.00     0.012 A 
ATOM     12  C   UNL     1      -0.103  -0.945   6.447  1.00  0.00     0.004 A 
ATOM     13  C   UNL     1       1.042   1.097   7.043  1.00  0.00     0.004 A 
ATOM     14  C   UNL     1      -0.059   0.449   6.483  1.00  0.00    -0.051 A 
ATOM     15  C   UNL     1      -1.186   1.245   5.920  1.00  0.00     0.044 C 
ENDBRANCH   7   9
ENDBRANCH   1   7
BRANCH   4  16
ATOM     16  N   UNL     1       2.199  -1.877  12.884  1.00  0.00     0.066 N 
ATOM     17  O   UNL     1       2.616  -2.267  14.001  1.00  0.00    -0.258 OA
ATOM     18  O   UNL     1       0.988  -1.636  12.670  1.00  0.00    -0.258 OA
ENDBRANCH   4  16
BRANCH   5  19
ATOM     19  O   UNL     1       6.672  -0.917  11.290  1.00  0.00    -0.504 OA
ATOM     20  H   UNL     1       6.995  -1.452  12.034  1.00  0.00     0.293 HD
ENDBRANCH   5  19
BRANCH   6  21
ATOM     21  O   UNL     1       4.899  -1.249  13.380  1.00  0.00    -0.500 OA
ATOM     22  H   UNL     1       4.219  -1.573  13.991  1.00  0.00     0.294 HD
ENDBRANCH   6  21
TORSDOF 5
ENDMDL
MODEL 9
REMARK VINA RESULT:    -2.316      1.479      2.193
REMARK INTER + INTRA:          -3.728
REMARK INTER:                  -2.890
REMARK INTRA:                  -0.838
REMARK UNBOUND:                -0.870
REMARK SMILES Cc1ccc(C(=O)c2cc(O)c(O)c([N+](=O)[O-])c2)cc1
REMARK SMILES IDX 8 1 18 2 9 3 14 4 10 5 12 6 6 7 7 8 5 9 4 10 19 11 3 12
REMARK SMILES IDX 20 13 2 14 1 15 15 16 17 17 16 18 11 19 13 21
REMARK H PARENT 11 20 13 22
ROOT
ATOM      1  C   UNL     1       2.264  -0.562   8.021  1.00  0.00     0.033 A 
ATOM      2  C   UNL     1       1.147   0.133   7.619  1.00  0.00     0.102 A 
ATOM      3  C   UNL     1       2.865  -1.523   7.243  1.00  0.00     0.063 A 
ATOM      4  C   UNL     1       0.601  -0.149   6.367  1.00  0.00     0.315 A 
ATOM      5  C   UNL     1       2.318  -1.806   5.991  1.00  0.00     0.165 A 
ATOM      6  C   UNL     1       1.185  -1.118   5.553  1.00  0.00     0.237 A 
ENDROOT
BRANCH   1   7
ATOM      7  C   UNL     1       2.850  -0.260   9.362  1.00  0.00     0.193 C 
ATOM      8  O   UNL     1       3.669   0.669   9.429  1.00  0.00    -0.289 OA
BRANCH   7   9
ATOM      9  C   UNL     1       2.492  -1.009  10.556  1.00  0.00     0.023 A 
ATOM     10  C   UNL     1       3.390  -1.098  11.619  1.00  0.00     0.012 A 
ATOM     11  C   UNL     1       1.249  -1.638  10.638  1.00  0.00     0.012 A 
ATOM     12  C   UNL     1       3.046  -1.816  12.764  1.00  0.00     0.004 A 
ATOM     13  C   UNL     1       0.905  -2.356  11.783  1.00  0.00     0.004 A 
ATOM     14  C   UNL     1       1.803  -2.445  12.847  1.00  0.00    -0.051 A 
ATOM     15  C   UNL     1       1.436  -3.214  14.071  1.00  0.00     0.044 C 
ENDBRANCH   7   9
ENDBRANCH   1   7
BRANCH   4  16
ATOM     16  N   UNL     1      -0.554   0.562   5.938  1.00  0.00     0.066 N 
ATOM     17  O   UNL     1      -1.369  -0.011   5.175  1.00  0.00    -0.258 OA
ATOM     18  O   UNL     1      -0.723   1.738   6.335  1.00  0.00    -0.258 OA
ENDBRANCH   4  16
BRANCH   5  19
ATOM     19  O   UNL     1       2.900  -2.756   5.206  1.00  0.00    -0.504 OA
ATOM     20  H   UNL     1       2.934  -3.599   5.687  1.00  0.00     0.293 HD
ENDBRANCH   5  19
BRANCH   6  21
ATOM     21  O   UNL     1       0.660  -1.403   4.326  1.00  0.00    -0.500 OA
ATOM     22  H   UNL     1       0.594  -0.590   3.803  1.00  0.00     0.294 HD
ENDBRANCH   6  21
TORSDOF 5
ENDMDL
