MODEL 1
REMARK VINA RESULT:    -6.977      0.000      0.000
REMARK INTER + INTRA:          -8.764
REMARK INTER:                  -8.200
REMARK INTRA:                  -0.564
REMARK UNBOUND:                -0.564
REMARK SMILES O=C(O)c1cc(-c2ccc(F)cc2F)ccc1O
REMARK SMILES IDX 6 1 5 2 15 3 4 4 17 5 16 6 7 7 13 8 12 9 8 10 10 11 9 12
REMARK SMILES IDX 14 13 11 14 2 15 1 16 3 17 18 19
REMARK H PARENT 3 18 18 20
ROOT
ATOM      1  C   UNL     1       2.738   5.393  -5.600  1.00  0.00    -0.014 A 
ATOM      2  C   UNL     1       3.252   5.093  -4.339  1.00  0.00     0.028 A 
ATOM      3  C   UNL     1       1.572   4.770  -6.044  1.00  0.00     0.013 A 
ATOM      4  C   UNL     1       2.601   4.170  -3.521  1.00  0.00     0.102 A 
ATOM      5  C   UNL     1       1.435   3.546  -3.965  1.00  0.00     0.130 A 
ATOM      6  C   UNL     1       0.920   3.846  -5.227  1.00  0.00     0.048 A 
ENDROOT
BRANCH   1   7
ATOM      7  C   UNL     1       3.414   6.351  -6.449  1.00  0.00     0.018 A 
ATOM      8  C   UNL     1       3.884   7.551  -5.915  1.00  0.00     0.133 A 
ATOM      9  C   UNL     1       4.535   8.471  -6.738  1.00  0.00     0.079 A 
ATOM     10  C   UNL     1       3.596   6.070  -7.803  1.00  0.00     0.015 A 
ATOM     11  C   UNL     1       4.716   8.191  -8.091  1.00  0.00     0.126 A 
ATOM     12  C   UNL     1       4.247   6.990  -8.624  1.00  0.00     0.040 A 
ATOM     13  F   UNL     1       3.714   7.837  -4.617  1.00  0.00    -0.206 F 
ATOM     14  F   UNL     1       5.341   9.074  -8.881  1.00  0.00    -0.207 F 
ENDBRANCH   1   7
BRANCH   4  15
ATOM     15  C   UNL     1       3.154   3.870  -2.207  1.00  0.00     0.339 C 
ATOM     16  O   UNL     1       3.419   2.743  -1.785  1.00  0.00    -0.246 OA
BRANCH  15  17
ATOM     17  O   UNL     1       3.358   4.992  -1.464  1.00  0.00    -0.478 OA
ATOM     18  H   UNL     1       4.149   4.909  -0.890  1.00  0.00     0.297 HD
ENDBRANCH  15  17
ENDBRANCH   4  15
BRANCH   5  19
ATOM     19  O   UNL     1       0.783   2.641  -3.182  1.00  0.00    -0.507 OA
ATOM     20  H   UNL     1       0.162   3.114  -2.600  1.00  0.00     0.293 HD
ENDBRANCH   5  19
TORSDOF 4
ENDMDL
MODEL 2
REMARK VINA RESULT:    -6.965      1.124      1.607
REMARK INTER + INTRA:          -8.750
REMARK INTER:                  -8.187
REMARK INTRA:                  -0.564
REMARK UNBOUND:                -0.564
REMARK SMILES O=C(O)c1cc(-c2ccc(F)cc2F)ccc1O
REMARK SMILES IDX 6 1 5 2 15 3 4 4 17 5 16 6 7 7 13 8 12 9 8 10 10 11 9 12
REMARK SMILES IDX 14 13 11 14 2 15 1 16 3 17 18 19
REMARK H PARENT 3 18 18 20
ROOT
ATOM      1  C   UNL     1       2.746   5.357  -5.625  1.00  0.00    -0.014 A 
ATOM      2  C   UNL     1       3.256   5.069  -4.360  1.00  0.00     0.028 A 
ATOM      3  C   UNL     1       1.580   4.732  -6.067  1.00  0.00     0.013 A 
ATOM      4  C   UNL     1       2.600   4.154  -3.535  1.00  0.00     0.102 A 
ATOM      5  C   UNL     1       1.434   3.529  -3.977  1.00  0.00     0.130 A 
ATOM      6  C   UNL     1       0.924   3.818  -5.243  1.00  0.00     0.048 A 
ENDROOT
BRANCH   1   7
ATOM      7  C   UNL     1       3.427   6.305  -6.482  1.00  0.00     0.018 A 
ATOM      8  C   UNL     1       3.637   6.006  -7.829  1.00  0.00     0.133 A 
ATOM      9  C   UNL     1       4.294   6.922  -8.651  1.00  0.00     0.079 A 
ATOM     10  C   UNL     1       3.872   7.518  -5.959  1.00  0.00     0.015 A 
ATOM     11  C   UNL     1       4.739   8.135  -8.127  1.00  0.00     0.126 A 
ATOM     12  C   UNL     1       4.528   8.433  -6.781  1.00  0.00     0.040 A 
ATOM     13  F   UNL     1       3.218   4.843  -8.347  1.00  0.00    -0.206 F 
ATOM     14  F   UNL     1       5.370   9.015  -8.916  1.00  0.00    -0.207 F 
ENDBRANCH   1   7
BRANCH   4  15
ATOM     15  C   UNL     1       3.149   3.866  -2.217  1.00  0.00     0.339 C 
ATOM     16  O   UNL     1       3.419   2.743  -1.787  1.00  0.00    -0.246 OA
BRANCH  15  17
ATOM     17  O   UNL     1       3.343   4.993  -1.480  1.00  0.00    -0.478 OA
ATOM     18  H   UNL     1       3.531   4.786  -0.540  1.00  0.00     0.297 HD
ENDBRANCH  15  17
ENDBRANCH   4  15
BRANCH   5  19
ATOM     19  O   UNL     1       0.778   2.633  -3.186  1.00  0.00    -0.507 OA
ATOM     20  H   UNL     1       1.203   1.762  -3.273  1.00  0.00     0.293 HD
ENDBRANCH   5  19
TORSDOF 4
ENDMDL
MODEL 3
REMARK VINA RESULT:    -6.964      1.218      2.700
REMARK INTER + INTRA:          -8.749
REMARK INTER:                  -8.192
REMARK INTRA:                  -0.556
REMARK UNBOUND:                -0.564
REMARK SMILES O=C(O)c1cc(-c2ccc(F)cc2F)ccc1O
REMARK SMILES IDX 6 1 5 2 15 3 4 4 17 5 16 6 7 7 13 8 12 9 8 10 10 11 9 12
REMARK SMILES IDX 14 13 11 14 2 15 1 16 3 17 18 19
REMARK H PARENT 3 18 18 20
ROOT
ATOM      1  C   UNL     1       2.775   5.368  -5.579  1.00  0.00    -0.014 A 
ATOM      2  C   UNL     1       1.621   4.751  -6.059  1.00  0.00     0.028 A 
ATOM      3  C   UNL     1       3.260   5.049  -4.310  1.00  0.00     0.013 A 
ATOM      4  C   UNL     1       0.950   3.814  -5.272  1.00  0.00     0.102 A 
ATOM      5  C   UNL     1       1.435   3.495  -4.004  1.00  0.00     0.130 A 
ATOM      6  C   UNL     1       2.590   4.113  -3.522  1.00  0.00     0.048 A 
ENDROOT
BRANCH   1   7
ATOM      7  C   UNL     1       3.470   6.341  -6.394  1.00  0.00     0.018 A 
ATOM      8  C   UNL     1       3.910   7.539  -5.832  1.00  0.00     0.133 A 
ATOM      9  C   UNL     1       4.580   8.474  -6.622  1.00  0.00     0.079 A 
ATOM     10  C   UNL     1       3.700   6.077  -7.744  1.00  0.00     0.015 A 
ATOM     11  C   UNL     1       4.809   8.211  -7.972  1.00  0.00     0.126 A 
ATOM     12  C   UNL     1       4.369   7.012  -8.533  1.00  0.00     0.040 A 
ATOM     13  F   UNL     1       3.695   7.809  -4.537  1.00  0.00    -0.206 F 
ATOM     14  F   UNL     1       5.451   9.108  -8.731  1.00  0.00    -0.207 F 
ENDBRANCH   1   7
BRANCH   4  15
ATOM     15  C   UNL     1      -0.253   3.180  -5.793  1.00  0.00     0.339 C 
ATOM     16  O   UNL     1      -1.348   3.153  -5.226  1.00  0.00    -0.246 OA
BRANCH  15  17
ATOM     17  O   UNL     1      -0.049   2.600  -7.007  1.00  0.00    -0.478 OA
ATOM     18  H   UNL     1      -0.842   2.666  -7.580  1.00  0.00     0.297 HD
ENDBRANCH  15  17
ENDBRANCH   4  15
BRANCH   5  19
ATOM     19  O   UNL     1       0.796   2.582  -3.219  1.00  0.00    -0.507 OA
ATOM     20  H   UNL     1       1.457   2.000  -2.806  1.00  0.00     0.293 HD
ENDBRANCH   5  19
TORSDOF 4
ENDMDL
MODEL 4
REMARK VINA RESULT:    -6.954      1.694      3.183
REMARK INTER + INTRA:          -8.738
REMARK INTER:                  -8.043
REMARK INTRA:                  -0.695
REMARK UNBOUND:                -0.564
REMARK SMILES O=C(O)c1cc(-c2ccc(F)cc2F)ccc1O
REMARK SMILES IDX 6 1 5 2 15 3 4 4 17 5 16 6 7 7 13 8 12 9 8 10 10 11 9 12
REMARK SMILES IDX 14 13 11 14 2 15 1 16 3 17 18 19
REMARK H PARENT 3 18 18 20
ROOT
ATOM      1  C   UNL     1       2.770   5.318  -5.701  1.00  0.00    -0.014 A 
ATOM      2  C   UNL     1       1.563   4.792  -6.160  1.00  0.00     0.028 A 
ATOM      3  C   UNL     1       3.285   4.910  -4.470  1.00  0.00     0.013 A 
ATOM      4  C   UNL     1       0.869   3.859  -5.388  1.00  0.00     0.102 A 
ATOM      5  C   UNL     1       1.384   3.452  -4.157  1.00  0.00     0.130 A 
ATOM      6  C   UNL     1       2.593   3.978  -3.698  1.00  0.00     0.048 A 
ENDROOT
BRANCH   1   7
ATOM      7  C   UNL     1       3.489   6.286  -6.500  1.00  0.00     0.018 A 
ATOM      8  C   UNL     1       3.715   6.046  -7.856  1.00  0.00     0.133 A 
ATOM      9  C   UNL     1       4.409   6.983  -8.623  1.00  0.00     0.079 A 
ATOM     10  C   UNL     1       3.955   7.462  -5.913  1.00  0.00     0.015 A 
ATOM     11  C   UNL     1       4.876   8.158  -8.035  1.00  0.00     0.126 A 
ATOM     12  C   UNL     1       4.648   8.398  -6.680  1.00  0.00     0.040 A 
ATOM     13  F   UNL     1       3.277   4.920  -8.435  1.00  0.00    -0.206 F 
ATOM     14  F   UNL     1       5.541   9.057  -8.770  1.00  0.00    -0.207 F 
ENDBRANCH   1   7
BRANCH   4  15
ATOM     15  C   UNL     1      -0.390   3.322  -5.885  1.00  0.00     0.339 C 
ATOM     16  O   UNL     1      -1.395   3.110  -5.202  1.00  0.00    -0.246 OA
BRANCH  15  17
ATOM     17  O   UNL     1      -0.354   3.069  -7.222  1.00  0.00    -0.478 OA
ATOM     18  H   UNL     1      -0.642   3.845  -7.748  1.00  0.00     0.297 HD
ENDBRANCH  15  17
ENDBRANCH   4  15
BRANCH   5  19
ATOM     19  O   UNL     1       0.723   2.541  -3.389  1.00  0.00    -0.507 OA
ATOM     20  H   UNL     1       1.310   2.246  -2.671  1.00  0.00     0.293 HD
ENDBRANCH   5  19
TORSDOF 4
ENDMDL
MODEL 5
REMARK VINA RESULT:    -5.301      4.053      6.285
REMARK INTER + INTRA:          -6.795
REMARK INTER:                  -5.720
REMARK INTRA:                  -1.075
REMARK UNBOUND:                -0.564
REMARK SMILES O=C(O)c1cc(-c2ccc(F)cc2F)ccc1O
REMARK SMILES IDX 6 1 5 2 15 3 4 4 17 5 16 6 7 7 13 8 12 9 8 10 10 11 9 12
REMARK SMILES IDX 14 13 11 14 2 15 1 16 3 17 18 19
REMARK H PARENT 3 18 18 20
ROOT
ATOM      1  C   UNL     1       4.070   7.139  -6.997  1.00  0.00    -0.014 A 
ATOM      2  C   UNL     1       5.459   7.254  -7.026  1.00  0.00     0.028 A 
ATOM      3  C   UNL     1       3.286   7.934  -7.834  1.00  0.00     0.013 A 
ATOM      4  C   UNL     1       6.066   8.162  -7.894  1.00  0.00     0.102 A 
ATOM      5  C   UNL     1       5.283   8.957  -8.731  1.00  0.00     0.130 A 
ATOM      6  C   UNL     1       3.892   8.842  -8.701  1.00  0.00     0.048 A 
ENDROOT
BRANCH   1   7
ATOM      7  C   UNL     1       3.439   6.198  -6.096  1.00  0.00     0.018 A 
ATOM      8  C   UNL     1       3.188   6.556  -4.771  1.00  0.00     0.133 A 
ATOM      9  C   UNL     1       2.580   5.646  -3.907  1.00  0.00     0.079 A 
ATOM     10  C   UNL     1       3.082   4.931  -6.556  1.00  0.00     0.015 A 
ATOM     11  C   UNL     1       2.224   4.378  -4.366  1.00  0.00     0.126 A 
ATOM     12  C   UNL     1       2.474   4.021  -5.692  1.00  0.00     0.040 A 
ATOM     13  F   UNL     1       3.527   7.769  -4.313  1.00  0.00    -0.206 F 
ATOM     14  F   UNL     1       1.640   3.504  -3.537  1.00  0.00    -0.207 F 
ENDBRANCH   1   7
BRANCH   4  15
ATOM     15  C   UNL     1       7.519   8.266  -7.910  1.00  0.00     0.339 C 
ATOM     16  O   UNL     1       8.180   8.895  -8.740  1.00  0.00    -0.246 OA
BRANCH  15  17
ATOM     17  O   UNL     1       8.099   7.581  -6.887  1.00  0.00    -0.478 OA
ATOM     18  H   UNL     1       8.432   8.183  -6.188  1.00  0.00     0.297 HD
ENDBRANCH  15  17
ENDBRANCH   4  15
BRANCH   5  19
ATOM     19  O   UNL     1       5.856   9.850  -9.586  1.00  0.00    -0.507 OA
ATOM     20  H   UNL     1       6.793   9.961  -9.347  1.00  0.00     0.293 HD
ENDBRANCH   5  19
TORSDOF 4
ENDMDL
MODEL 6
REMARK VINA RESULT:    -5.300      4.558      6.903
REMARK INTER + INTRA:          -6.793
REMARK INTER:                  -5.719
REMARK INTRA:                  -1.074
REMARK UNBOUND:                -0.564
REMARK SMILES O=C(O)c1cc(-c2ccc(F)cc2F)ccc1O
REMARK SMILES IDX 6 1 5 2 15 3 4 4 17 5 16 6 7 7 13 8 12 9 8 10 10 11 9 12
REMARK SMILES IDX 14 13 11 14 2 15 1 16 3 17 18 19
REMARK H PARENT 3 18 18 20
ROOT
ATOM      1  C   UNL     1       3.944   7.021  -7.240  1.00  0.00    -0.014 A 
ATOM      2  C   UNL     1       3.278   7.911  -8.080  1.00  0.00     0.028 A 
ATOM      3  C   UNL     1       5.333   7.073  -7.129  1.00  0.00     0.013 A 
ATOM      4  C   UNL     1       4.001   8.855  -8.811  1.00  0.00     0.102 A 
ATOM      5  C   UNL     1       5.390   8.907  -8.700  1.00  0.00     0.130 A 
ATOM      6  C   UNL     1       6.057   8.016  -7.858  1.00  0.00     0.048 A 
ENDROOT
BRANCH   1   7
ATOM      7  C   UNL     1       3.195   6.041  -6.483  1.00  0.00     0.018 A 
ATOM      8  C   UNL     1       2.832   4.829  -7.071  1.00  0.00     0.133 A 
ATOM      9  C   UNL     1       2.110   3.887  -6.338  1.00  0.00     0.079 A 
ATOM     10  C   UNL     1       2.837   6.310  -5.162  1.00  0.00     0.015 A 
ATOM     11  C   UNL     1       1.751   4.156  -5.018  1.00  0.00     0.126 A 
ATOM     12  C   UNL     1       2.115   5.368  -4.430  1.00  0.00     0.040 A 
ATOM     13  F   UNL     1       3.166   4.556  -8.341  1.00  0.00    -0.206 F 
ATOM     14  F   UNL     1       1.058   3.253  -4.313  1.00  0.00    -0.207 F 
ENDBRANCH   1   7
BRANCH   4  15
ATOM     15  C   UNL     1       3.286   9.777  -9.683  1.00  0.00     0.339 C 
ATOM     16  O   UNL     1       3.787  10.743 -10.264  1.00  0.00    -0.246 OA
BRANCH  15  17
ATOM     17  O   UNL     1       1.968   9.461  -9.802  1.00  0.00    -0.478 OA
ATOM     18  H   UNL     1       1.656   9.542 -10.728  1.00  0.00     0.297 HD
ENDBRANCH  15  17
ENDBRANCH   4  15
BRANCH   5  19
ATOM     19  O   UNL     1       6.115   9.822  -9.404  1.00  0.00    -0.507 OA
ATOM     20  H   UNL     1       6.117  10.666  -8.920  1.00  0.00     0.293 HD
ENDBRANCH   5  19
TORSDOF 4
ENDMDL
MODEL 7
REMARK VINA RESULT:    -4.465      1.623      2.049
REMARK INTER + INTRA:          -5.812
REMARK INTER:                  -4.846
REMARK INTRA:                  -0.966
REMARK UNBOUND:                -0.564
REMARK SMILES O=C(O)c1cc(-c2ccc(F)cc2F)ccc1O
REMARK SMILES IDX 6 1 5 2 15 3 4 4 17 5 16 6 7 7 13 8 12 9 8 10 10 11 9 12
REMARK SMILES IDX 14 13 11 14 2 15 1 16 3 17 18 19
REMARK H PARENT 3 18 18 20
ROOT
ATOM      1  C   UNL     1       3.491   6.208  -6.704  1.00  0.00    -0.014 A 
ATOM      2  C   UNL     1       3.579   6.390  -5.324  1.00  0.00     0.028 A 
ATOM      3  C   UNL     1       3.067   4.984  -7.220  1.00  0.00     0.013 A 
ATOM      4  C   UNL     1       3.243   5.348  -4.459  1.00  0.00     0.102 A 
ATOM      5  C   UNL     1       2.819   4.124  -4.975  1.00  0.00     0.130 A 
ATOM      6  C   UNL     1       2.730   3.942  -6.356  1.00  0.00     0.048 A 
ENDROOT
BRANCH   1   7
ATOM      7  C   UNL     1       3.841   7.288  -7.601  1.00  0.00     0.018 A 
ATOM      8  C   UNL     1       5.166   7.710  -7.706  1.00  0.00     0.133 A 
ATOM      9  C   UNL     1       5.499   8.752  -8.572  1.00  0.00     0.079 A 
ATOM     10  C   UNL     1       2.849   7.906  -8.363  1.00  0.00     0.015 A 
ATOM     11  C   UNL     1       4.508   9.371  -9.333  1.00  0.00     0.126 A 
ATOM     12  C   UNL     1       3.183   8.947  -9.228  1.00  0.00     0.040 A 
ATOM     13  F   UNL     1       6.131   7.128  -6.979  1.00  0.00    -0.206 F 
ATOM     14  F   UNL     1       4.826  10.370 -10.165  1.00  0.00    -0.207 F 
ENDBRANCH   1   7
BRANCH   4  15
ATOM     15  C   UNL     1       3.341   5.559  -3.022  1.00  0.00     0.339 C 
ATOM     16  O   UNL     1       3.408   4.667  -2.173  1.00  0.00    -0.246 OA
BRANCH  15  17
ATOM     17  O   UNL     1       3.354   6.879  -2.691  1.00  0.00    -0.478 OA
ATOM     18  H   UNL     1       2.877   7.425  -3.351  1.00  0.00     0.297 HD
ENDBRANCH  15  17
ENDBRANCH   4  15
BRANCH   5  19
ATOM     19  O   UNL     1       2.485   3.093  -4.148  1.00  0.00    -0.507 OA
ATOM     20  H   UNL     1       3.206   2.953  -3.510  1.00  0.00     0.293 HD
ENDBRANCH   5  19
TORSDOF 4
ENDMDL
MODEL 8
REMARK VINA RESULT:    -3.983      6.278      8.589
REMARK INTER + INTRA:          -5.245
REMARK INTER:                  -4.592
REMARK INTRA:                  -0.653
REMARK UNBOUND:                -0.564
REMARK SMILES O=C(O)c1cc(-c2ccc(F)cc2F)ccc1O
REMARK SMILES IDX 6 1 5 2 15 3 4 4 17 5 16 6 7 7 13 8 12 9 8 10 10 11 9 12
REMARK SMILES IDX 14 13 11 14 2 15 1 16 3 17 18 19
REMARK H PARENT 3 18 18 20
ROOT
ATOM      1  C   UNL     1       3.444   9.962  -9.586  1.00  0.00    -0.014 A 
ATOM      2  C   UNL     1       4.192  10.169 -10.744  1.00  0.00     0.028 A 
ATOM      3  C   UNL     1       2.364  10.795  -9.295  1.00  0.00     0.013 A 
ATOM      4  C   UNL     1       3.861  11.210 -11.612  1.00  0.00     0.102 A 
ATOM      5  C   UNL     1       2.780  12.043 -11.321  1.00  0.00     0.130 A 
ATOM      6  C   UNL     1       2.032  11.835 -10.162  1.00  0.00     0.048 A 
ENDROOT
BRANCH   1   7
ATOM      7  C   UNL     1       3.789   8.884  -8.684  1.00  0.00     0.018 A 
ATOM      8  C   UNL     1       5.124   8.639  -8.363  1.00  0.00     0.133 A 
ATOM      9  C   UNL     1       5.452   7.598  -7.494  1.00  0.00     0.079 A 
ATOM     10  C   UNL     1       2.782   8.090  -8.136  1.00  0.00     0.015 A 
ATOM     11  C   UNL     1       4.445   6.803  -6.946  1.00  0.00     0.126 A 
ATOM     12  C   UNL     1       3.110   7.050  -7.267  1.00  0.00     0.040 A 
ATOM     13  F   UNL     1       6.104   9.391  -8.884  1.00  0.00    -0.206 F 
ATOM     14  F   UNL     1       4.759   5.804  -6.111  1.00  0.00    -0.207 F 
ENDBRANCH   1   7
BRANCH   4  15
ATOM     15  C   UNL     1       4.654  11.410 -12.817  1.00  0.00     0.339 C 
ATOM     16  O   UNL     1       4.253  11.938 -13.857  1.00  0.00    -0.246 OA
BRANCH  15  17
ATOM     17  O   UNL     1       5.926  10.944 -12.683  1.00  0.00    -0.478 OA
ATOM     18  H   UNL     1       5.975   9.974 -12.813  1.00  0.00     0.297 HD
ENDBRANCH  15  17
ENDBRANCH   4  15
BRANCH   5  19
ATOM     19  O   UNL     1       2.439  13.065 -12.156  1.00  0.00    -0.507 OA
ATOM     20  H   UNL     1       1.471  13.153 -12.170  1.00  0.00     0.293 HD
ENDBRANCH   5  19
TORSDOF 4
ENDMDL
