MODEL 1
REMARK VINA RESULT:    -5.090      0.000      0.000
REMARK INTER + INTRA:          -7.039
REMARK INTER:                  -6.280
REMARK INTRA:                  -0.759
REMARK UNBOUND:                -0.759
REMARK SMILES Cc1ccc(C(=O)c2cc(O)c(O)c([N+](=O)[O-])c2)cc1
REMARK SMILES IDX 8 1 18 2 9 3 14 4 10 5 12 6 6 7 7 8 5 9 4 10 19 11 3 12
REMARK SMILES IDX 20 13 2 14 1 15 15 16 17 17 16 18 11 19 13 21
REMARK H PARENT 11 20 13 22
ROOT
ATOM      1  C   UNL     1       3.516   4.855  -5.329  1.00  0.00     0.033 A 
ATOM      2  C   UNL     1       2.348   4.500  -5.964  1.00  0.00     0.102 A 
ATOM      3  C   UNL     1       3.795   4.503  -4.030  1.00  0.00     0.063 A 
ATOM      4  C   UNL     1       1.407   3.750  -5.259  1.00  0.00     0.315 A 
ATOM      5  C   UNL     1       2.853   3.753  -3.324  1.00  0.00     0.165 A 
ATOM      6  C   UNL     1       1.659   3.376  -3.940  1.00  0.00     0.237 A 
ENDROOT
BRANCH   1   7
ATOM      7  C   UNL     1       4.524   5.658  -6.084  1.00  0.00     0.193 C 
ATOM      8  O   UNL     1       5.721   5.394  -5.892  1.00  0.00    -0.289 OA
BRANCH   7   9
ATOM      9  C   UNL     1       4.145   6.713  -7.010  1.00  0.00     0.023 A 
ATOM     10  C   UNL     1       4.118   8.041  -6.583  1.00  0.00     0.012 A 
ATOM     11  C   UNL     1       3.809   6.397  -8.327  1.00  0.00     0.012 A 
ATOM     12  C   UNL     1       3.755   9.052  -7.473  1.00  0.00     0.004 A 
ATOM     13  C   UNL     1       3.445   7.408  -9.217  1.00  0.00     0.004 A 
ATOM     14  C   UNL     1       3.419   8.736  -8.790  1.00  0.00    -0.051 A 
ATOM     15  C   UNL     1       3.029   9.817  -9.740  1.00  0.00     0.044 C 
ENDBRANCH   7   9
ENDBRANCH   1   7
BRANCH   4  16
ATOM     16  N   UNL     1       0.195   3.375  -5.903  1.00  0.00     0.066 N 
ATOM     17  O   UNL     1       0.231   3.032  -7.109  1.00  0.00    -0.258 OA
ATOM     18  O   UNL     1      -0.872   3.398  -5.246  1.00  0.00    -0.258 OA
ENDBRANCH   4  16
BRANCH   5  19
ATOM     19  O   UNL     1       3.113   3.395  -2.036  1.00  0.00    -0.504 OA
ATOM     20  H   UNL     1       2.492   2.701  -1.759  1.00  0.00     0.293 HD
ENDBRANCH   5  19
BRANCH   6  21
ATOM     21  O   UNL     1       0.746   2.642  -3.240  1.00  0.00    -0.500 OA
ATOM     22  H   UNL     1      -0.060   2.534  -3.768  1.00  0.00     0.294 HD
ENDBRANCH   6  21
TORSDOF 5
ENDMDL
MODEL 2
REMARK VINA RESULT:    -5.048      2.036      3.546
REMARK INTER + INTRA:          -6.987
REMARK INTER:                  -6.257
REMARK INTRA:                  -0.730
REMARK UNBOUND:                -0.759
REMARK SMILES Cc1ccc(C(=O)c2cc(O)c(O)c([N+](=O)[O-])c2)cc1
REMARK SMILES IDX 8 1 18 2 9 3 14 4 10 5 12 6 6 7 7 8 5 9 4 10 19 11 3 12
REMARK SMILES IDX 20 13 2 14 1 15 15 16 17 17 16 18 11 19 13 21
REMARK H PARENT 11 20 13 22
ROOT
ATOM      1  C   UNL     1       1.875   5.679  -5.728  1.00  0.00     0.033 A 
ATOM      2  C   UNL     1       2.646   5.478  -4.606  1.00  0.00     0.102 A 
ATOM      3  C   UNL     1       0.782   4.902  -6.032  1.00  0.00     0.063 A 
ATOM      4  C   UNL     1       2.303   4.440  -3.739  1.00  0.00     0.315 A 
ATOM      5  C   UNL     1       0.440   3.863  -5.165  1.00  0.00     0.165 A 
ATOM      6  C   UNL     1       1.201   3.633  -4.018  1.00  0.00     0.237 A 
ENDROOT
BRANCH   1   7
ATOM      7  C   UNL     1       2.241   6.790  -6.657  1.00  0.00     0.193 C 
ATOM      8  O   UNL     1       1.312   7.415  -7.191  1.00  0.00    -0.289 OA
BRANCH   7   9
ATOM      9  C   UNL     1       3.622   7.145  -6.942  1.00  0.00     0.023 A 
ATOM     10  C   UNL     1       4.243   6.662  -8.094  1.00  0.00     0.012 A 
ATOM     11  C   UNL     1       4.326   7.968  -6.063  1.00  0.00     0.012 A 
ATOM     12  C   UNL     1       5.568   7.003  -8.366  1.00  0.00     0.004 A 
ATOM     13  C   UNL     1       5.652   8.309  -6.335  1.00  0.00     0.004 A 
ATOM     14  C   UNL     1       6.273   7.827  -7.487  1.00  0.00    -0.051 A 
ATOM     15  C   UNL     1       7.689   8.189  -7.779  1.00  0.00     0.044 C 
ENDBRANCH   7   9
ENDBRANCH   1   7
BRANCH   4  16
ATOM     16  N   UNL     1       3.090   4.220  -2.576  1.00  0.00     0.066 N 
ATOM     17  O   UNL     1       3.335   3.041  -2.224  1.00  0.00    -0.258 OA
ATOM     18  O   UNL     1       3.516   5.210  -1.936  1.00  0.00    -0.258 OA
ENDBRANCH   4  16
BRANCH   5  19
ATOM     19  O   UNL     1      -0.640   3.083  -5.450  1.00  0.00    -0.504 OA
ATOM     20  H   UNL     1      -0.517   2.661  -6.316  1.00  0.00     0.293 HD
ENDBRANCH   5  19
BRANCH   6  21
ATOM     21  O   UNL     1       0.855   2.615  -3.177  1.00  0.00    -0.500 OA
ATOM     22  H   UNL     1       1.546   1.934  -3.189  1.00  0.00     0.294 HD
ENDBRANCH   6  21
TORSDOF 5
ENDMDL
MODEL 3
REMARK VINA RESULT:    -4.216      3.505      7.142
REMARK INTER + INTRA:          -5.961
REMARK INTER:                  -4.994
REMARK INTRA:                  -0.967
REMARK UNBOUND:                -0.759
REMARK SMILES Cc1ccc(C(=O)c2cc(O)c(O)c([N+](=O)[O-])c2)cc1
REMARK SMILES IDX 8 1 18 2 9 3 14 4 10 5 12 6 6 7 7 8 5 9 4 10 19 11 3 12
REMARK SMILES IDX 20 13 2 14 1 15 15 16 17 17 16 18 11 19 13 21
REMARK H PARENT 11 20 13 22
ROOT
ATOM      1  C   UNL     1       4.092   7.062  -7.990  1.00  0.00     0.033 A 
ATOM      2  C   UNL     1       5.439   7.170  -7.728  1.00  0.00     0.102 A 
ATOM      3  C   UNL     1       3.404   7.975  -8.752  1.00  0.00     0.063 A 
ATOM      4  C   UNL     1       6.136   8.254  -8.261  1.00  0.00     0.315 A 
ATOM      5  C   UNL     1       4.102   9.060  -9.285  1.00  0.00     0.165 A 
ATOM      6  C   UNL     1       5.468   9.199  -9.040  1.00  0.00     0.237 A 
ENDROOT
BRANCH   1   7
ATOM      7  C   UNL     1       3.345   5.901  -7.419  1.00  0.00     0.193 C 
ATOM      8  O   UNL     1       2.664   5.222  -8.202  1.00  0.00    -0.289 OA
BRANCH   7   9
ATOM      9  C   UNL     1       3.397   5.558  -6.007  1.00  0.00     0.023 A 
ATOM     10  C   UNL     1       3.121   6.528  -5.043  1.00  0.00     0.012 A 
ATOM     11  C   UNL     1       3.722   4.260  -5.616  1.00  0.00     0.012 A 
ATOM     12  C   UNL     1       3.171   6.199  -3.689  1.00  0.00     0.004 A 
ATOM     13  C   UNL     1       3.772   3.930  -4.261  1.00  0.00     0.004 A 
ATOM     14  C   UNL     1       3.496   4.900  -3.297  1.00  0.00    -0.051 A 
ATOM     15  C   UNL     1       3.551   4.549  -1.849  1.00  0.00     0.044 C 
ENDBRANCH   7   9
ENDBRANCH   1   7
BRANCH   4  16
ATOM     16  N   UNL     1       7.528   8.379  -8.000  1.00  0.00     0.066 N 
ATOM     17  O   UNL     1       7.983   7.941  -6.916  1.00  0.00    -0.258 OA
ATOM     18  O   UNL     1       8.259   8.924  -8.860  1.00  0.00    -0.258 OA
ENDBRANCH   4  16
BRANCH   5  19
ATOM     19  O   UNL     1       3.436   9.975 -10.044  1.00  0.00    -0.504 OA
ATOM     20  H   UNL     1       3.931  10.140 -10.863  1.00  0.00     0.293 HD
ENDBRANCH   5  19
BRANCH   6  21
ATOM     21  O   UNL     1       6.140  10.264  -9.566  1.00  0.00    -0.500 OA
ATOM     22  H   UNL     1       7.064  10.018  -9.730  1.00  0.00     0.294 HD
ENDBRANCH   6  21
TORSDOF 5
ENDMDL
MODEL 4
REMARK VINA RESULT:    -4.210      3.652      6.572
REMARK INTER + INTRA:          -5.954
REMARK INTER:                  -4.983
REMARK INTRA:                  -0.970
REMARK UNBOUND:                -0.759
REMARK SMILES Cc1ccc(C(=O)c2cc(O)c(O)c([N+](=O)[O-])c2)cc1
REMARK SMILES IDX 8 1 18 2 9 3 14 4 10 5 12 6 6 7 7 8 5 9 4 10 19 11 3 12
REMARK SMILES IDX 20 13 2 14 1 15 15 16 17 17 16 18 11 19 13 21
REMARK H PARENT 11 20 13 22
ROOT
ATOM      1  C   UNL     1       4.387   7.831  -6.862  1.00  0.00     0.033 A 
ATOM      2  C   UNL     1       3.561   8.482  -7.749  1.00  0.00     0.102 A 
ATOM      3  C   UNL     1       5.758   7.861  -6.959  1.00  0.00     0.063 A 
ATOM      4  C   UNL     1       4.140   9.206  -8.791  1.00  0.00     0.315 A 
ATOM      5  C   UNL     1       6.338   8.585  -8.002  1.00  0.00     0.165 A 
ATOM      6  C   UNL     1       5.528   9.258  -8.918  1.00  0.00     0.237 A 
ENDROOT
BRANCH   1   7
ATOM      7  C   UNL     1       3.767   7.055  -5.746  1.00  0.00     0.193 C 
ATOM      8  O   UNL     1       4.154   7.308  -4.595  1.00  0.00    -0.289 OA
BRANCH   7   9
ATOM      9  C   UNL     1       2.750   6.041  -5.972  1.00  0.00     0.023 A 
ATOM     10  C   UNL     1       2.977   5.020  -6.895  1.00  0.00     0.012 A 
ATOM     11  C   UNL     1       1.549   6.089  -5.266  1.00  0.00     0.012 A 
ATOM     12  C   UNL     1       2.001   4.047  -7.111  1.00  0.00     0.004 A 
ATOM     13  C   UNL     1       0.572   5.115  -5.482  1.00  0.00     0.004 A 
ATOM     14  C   UNL     1       0.799   4.094  -6.404  1.00  0.00    -0.051 A 
ATOM     15  C   UNL     1      -0.244   3.055  -6.637  1.00  0.00     0.044 C 
ENDBRANCH   7   9
ENDBRANCH   1   7
BRANCH   4  16
ATOM     16  N   UNL     1       3.300   9.884  -9.716  1.00  0.00     0.066 N 
ATOM     17  O   UNL     1       3.716  10.939 -10.253  1.00  0.00    -0.258 OA
ATOM     18  O   UNL     1       2.168   9.409  -9.967  1.00  0.00    -0.258 OA
ENDBRANCH   4  16
BRANCH   5  19
ATOM     19  O   UNL     1       7.695   8.627  -8.113  1.00  0.00    -0.504 OA
ATOM     20  H   UNL     1       8.096   8.118  -7.390  1.00  0.00     0.293 HD
ENDBRANCH   5  19
BRANCH   6  21
ATOM     21  O   UNL     1       6.107   9.962  -9.933  1.00  0.00    -0.500 OA
ATOM     22  H   UNL     1       5.418  10.332 -10.508  1.00  0.00     0.294 HD
ENDBRANCH   6  21
TORSDOF 5
ENDMDL
MODEL 5
REMARK VINA RESULT:    -4.190      3.752      6.983
REMARK INTER + INTRA:          -5.929
REMARK INTER:                  -4.949
REMARK INTRA:                  -0.980
REMARK UNBOUND:                -0.759
REMARK SMILES Cc1ccc(C(=O)c2cc(O)c(O)c([N+](=O)[O-])c2)cc1
REMARK SMILES IDX 8 1 18 2 9 3 14 4 10 5 12 6 6 7 7 8 5 9 4 10 19 11 3 12
REMARK SMILES IDX 20 13 2 14 1 15 15 16 17 17 16 18 11 19 13 21
REMARK H PARENT 11 20 13 22
ROOT
ATOM      1  C   UNL     1       4.338   7.842  -6.955  1.00  0.00     0.033 A 
ATOM      2  C   UNL     1       5.702   7.860  -7.136  1.00  0.00     0.102 A 
ATOM      3  C   UNL     1       3.469   8.530  -7.768  1.00  0.00     0.063 A 
ATOM      4  C   UNL     1       6.225   8.607  -8.192  1.00  0.00     0.315 A 
ATOM      5  C   UNL     1       3.992   9.278  -8.823  1.00  0.00     0.165 A 
ATOM      6  C   UNL     1       5.371   9.316  -9.035  1.00  0.00     0.237 A 
ENDROOT
BRANCH   1   7
ATOM      7  C   UNL     1       3.778   7.042  -5.825  1.00  0.00     0.193 C 
ATOM      8  O   UNL     1       4.220   7.275  -4.689  1.00  0.00    -0.289 OA
BRANCH   7   9
ATOM      9  C   UNL     1       2.755   6.027  -6.020  1.00  0.00     0.023 A 
ATOM     10  C   UNL     1       1.576   6.073  -5.276  1.00  0.00     0.012 A 
ATOM     11  C   UNL     1       2.953   5.008  -6.951  1.00  0.00     0.012 A 
ATOM     12  C   UNL     1       0.596   5.099  -5.463  1.00  0.00     0.004 A 
ATOM     13  C   UNL     1       1.972   4.033  -7.139  1.00  0.00     0.004 A 
ATOM     14  C   UNL     1       0.793   4.079  -6.395  1.00  0.00    -0.051 A 
ATOM     15  C   UNL     1      -0.255   3.038  -6.594  1.00  0.00     0.044 C 
ENDBRANCH   7   9
ENDBRANCH   1   7
BRANCH   4  16
ATOM     16  N   UNL     1       7.633   8.634  -8.392  1.00  0.00     0.066 N 
ATOM     17  O   UNL     1       8.152   9.652  -8.909  1.00  0.00    -0.258 OA
ATOM     18  O   UNL     1       8.313   7.641  -8.045  1.00  0.00    -0.258 OA
ENDBRANCH   4  16
BRANCH   5  19
ATOM     19  O   UNL     1       3.145   9.965  -9.640  1.00  0.00    -0.504 OA
ATOM     20  H   UNL     1       2.984   9.452 -10.448  1.00  0.00     0.293 HD
ENDBRANCH   5  19
BRANCH   6  21
ATOM     21  O   UNL     1       5.870  10.050 -10.071  1.00  0.00    -0.500 OA
ATOM     22  H   UNL     1       5.501   9.727 -10.908  1.00  0.00     0.294 HD
ENDBRANCH   6  21
TORSDOF 5
ENDMDL
MODEL 6
REMARK VINA RESULT:    -4.134      1.261      2.894
REMARK INTER + INTRA:          -5.859
REMARK INTER:                  -5.191
REMARK INTRA:                  -0.668
REMARK UNBOUND:                -0.759
REMARK SMILES Cc1ccc(C(=O)c2cc(O)c(O)c([N+](=O)[O-])c2)cc1
REMARK SMILES IDX 8 1 18 2 9 3 14 4 10 5 12 6 6 7 7 8 5 9 4 10 19 11 3 12
REMARK SMILES IDX 20 13 2 14 1 15 15 16 17 17 16 18 11 19 13 21
REMARK H PARENT 11 20 13 22
ROOT
ATOM      1  C   UNL     1       3.554   5.280  -5.733  1.00  0.00     0.033 A 
ATOM      2  C   UNL     1       3.787   5.017  -4.403  1.00  0.00     0.102 A 
ATOM      3  C   UNL     1       2.479   4.764  -6.418  1.00  0.00     0.063 A 
ATOM      4  C   UNL     1       2.894   4.193  -3.720  1.00  0.00     0.315 A 
ATOM      5  C   UNL     1       1.586   3.939  -5.735  1.00  0.00     0.165 A 
ATOM      6  C   UNL     1       1.794   3.653  -4.385  1.00  0.00     0.237 A 
ENDROOT
BRANCH   1   7
ATOM      7  C   UNL     1       4.510   6.164  -6.466  1.00  0.00     0.193 C 
ATOM      8  O   UNL     1       5.721   5.979  -6.268  1.00  0.00    -0.289 OA
BRANCH   7   9
ATOM      9  C   UNL     1       4.067   7.204  -7.380  1.00  0.00     0.023 A 
ATOM     10  C   UNL     1       3.737   6.881  -8.696  1.00  0.00     0.012 A 
ATOM     11  C   UNL     1       3.973   8.524  -6.941  1.00  0.00     0.012 A 
ATOM     12  C   UNL     1       3.312   7.880  -9.573  1.00  0.00     0.004 A 
ATOM     13  C   UNL     1       3.547   9.523  -7.817  1.00  0.00     0.004 A 
ATOM     14  C   UNL     1       3.217   9.201  -9.134  1.00  0.00    -0.051 A 
ATOM     15  C   UNL     1       2.763  10.267 -10.071  1.00  0.00     0.044 C 
ENDBRANCH   7   9
ENDBRANCH   1   7
BRANCH   4  16
ATOM     16  N   UNL     1       3.122   3.913  -2.344  1.00  0.00     0.066 N 
ATOM     17  O   UNL     1       3.265   2.719  -1.984  1.00  0.00    -0.258 OA
ATOM     18  O   UNL     1       3.174   4.866  -1.532  1.00  0.00    -0.258 OA
ENDBRANCH   4  16
BRANCH   5  19
ATOM     19  O   UNL     1       0.515   3.419  -6.398  1.00  0.00    -0.504 OA
ATOM     20  H   UNL     1       0.673   2.479  -6.585  1.00  0.00     0.293 HD
ENDBRANCH   5  19
BRANCH   6  21
ATOM     21  O   UNL     1       0.913   2.845  -3.727  1.00  0.00    -0.500 OA
ATOM     22  H   UNL     1       0.156   3.369  -3.420  1.00  0.00     0.294 HD
ENDBRANCH   6  21
TORSDOF 5
ENDMDL
MODEL 7
REMARK VINA RESULT:    -4.111      1.909      2.379
REMARK INTER + INTRA:          -5.831
REMARK INTER:                  -5.155
REMARK INTRA:                  -0.675
REMARK UNBOUND:                -0.759
REMARK SMILES Cc1ccc(C(=O)c2cc(O)c(O)c([N+](=O)[O-])c2)cc1
REMARK SMILES IDX 8 1 18 2 9 3 14 4 10 5 12 6 6 7 7 8 5 9 4 10 19 11 3 12
REMARK SMILES IDX 20 13 2 14 1 15 15 16 17 17 16 18 11 19 13 21
REMARK H PARENT 11 20 13 22
ROOT
ATOM      1  C   UNL     1       2.198   5.897  -5.922  1.00  0.00     0.033 A 
ATOM      2  C   UNL     1       1.168   5.076  -6.320  1.00  0.00     0.102 A 
ATOM      3  C   UNL     1       2.851   5.745  -4.722  1.00  0.00     0.063 A 
ATOM      4  C   UNL     1       0.770   4.045  -5.470  1.00  0.00     0.315 A 
ATOM      5  C   UNL     1       2.453   4.713  -3.871  1.00  0.00     0.165 A 
ATOM      6  C   UNL     1       1.412   3.863  -4.246  1.00  0.00     0.237 A 
ENDROOT
BRANCH   1   7
ATOM      7  C   UNL     1       2.625   7.002  -6.832  1.00  0.00     0.193 C 
ATOM      8  O   UNL     1       1.731   7.666  -7.378  1.00  0.00    -0.289 OA
BRANCH   7   9
ATOM      9  C   UNL     1       4.024   7.308  -7.085  1.00  0.00     0.023 A 
ATOM     10  C   UNL     1       4.724   8.141  -6.212  1.00  0.00     0.012 A 
ATOM     11  C   UNL     1       4.665   6.768  -8.199  1.00  0.00     0.012 A 
ATOM     12  C   UNL     1       6.066   8.434  -6.454  1.00  0.00     0.004 A 
ATOM     13  C   UNL     1       6.008   7.061  -8.442  1.00  0.00     0.004 A 
ATOM     14  C   UNL     1       6.709   7.894  -7.569  1.00  0.00    -0.051 A 
ATOM     15  C   UNL     1       8.142   8.209  -7.828  1.00  0.00     0.044 C 
ENDBRANCH   7   9
ENDBRANCH   1   7
BRANCH   4  16
ATOM     16  N   UNL     1      -0.293   3.189  -5.869  1.00  0.00     0.066 N 
ATOM     17  O   UNL     1      -1.335   3.150  -5.170  1.00  0.00    -0.258 OA
ATOM     18  O   UNL     1      -0.159   2.499  -6.906  1.00  0.00    -0.258 OA
ENDBRANCH   4  16
BRANCH   5  19
ATOM     19  O   UNL     1       3.089   4.547  -2.678  1.00  0.00    -0.504 OA
ATOM     20  H   UNL     1       2.495   4.103  -2.051  1.00  0.00     0.293 HD
ENDBRANCH   5  19
BRANCH   6  21
ATOM     21  O   UNL     1       1.031   2.857  -3.405  1.00  0.00    -0.500 OA
ATOM     22  H   UNL     1       0.302   3.161  -2.842  1.00  0.00     0.294 HD
ENDBRANCH   6  21
TORSDOF 5
ENDMDL
MODEL 8
REMARK VINA RESULT:    -4.107      3.568      4.397
REMARK INTER + INTRA:          -5.826
REMARK INTER:                  -4.848
REMARK INTRA:                  -0.979
REMARK UNBOUND:                -0.759
REMARK SMILES Cc1ccc(C(=O)c2cc(O)c(O)c([N+](=O)[O-])c2)cc1
REMARK SMILES IDX 8 1 18 2 9 3 14 4 10 5 12 6 6 7 7 8 5 9 4 10 19 11 3 12
REMARK SMILES IDX 20 13 2 14 1 15 15 16 17 17 16 18 11 19 13 21
REMARK H PARENT 11 20 13 22
ROOT
ATOM      1  C   UNL     1       4.459   7.854  -6.540  1.00  0.00     0.033 A 
ATOM      2  C   UNL     1       3.846   6.623  -6.497  1.00  0.00     0.102 A 
ATOM      3  C   UNL     1       4.532   8.690  -5.452  1.00  0.00     0.063 A 
ATOM      4  C   UNL     1       3.275   6.205  -5.295  1.00  0.00     0.315 A 
ATOM      5  C   UNL     1       3.960   8.272  -4.250  1.00  0.00     0.165 A 
ATOM      6  C   UNL     1       3.331   7.029  -4.171  1.00  0.00     0.237 A 
ENDROOT
BRANCH   1   7
ATOM      7  C   UNL     1       5.071   8.302  -7.827  1.00  0.00     0.193 C 
ATOM      8  O   UNL     1       4.305   8.739  -8.700  1.00  0.00    -0.289 OA
BRANCH   7   9
ATOM      9  C   UNL     1       6.503   8.240  -8.073  1.00  0.00     0.023 A 
ATOM     10  C   UNL     1       7.191   9.384  -8.479  1.00  0.00     0.012 A 
ATOM     11  C   UNL     1       7.189   7.038  -7.902  1.00  0.00     0.012 A 
ATOM     12  C   UNL     1       8.564   9.324  -8.715  1.00  0.00     0.004 A 
ATOM     13  C   UNL     1       8.563   6.978  -8.137  1.00  0.00     0.004 A 
ATOM     14  C   UNL     1       9.251   8.121  -8.543  1.00  0.00    -0.051 A 
ATOM     15  C   UNL     1      10.719   8.058  -8.796  1.00  0.00     0.044 C 
ENDBRANCH   7   9
ENDBRANCH   1   7
BRANCH   4  16
ATOM     16  N   UNL     1       2.638   4.935  -5.234  1.00  0.00     0.066 N 
ATOM     17  O   UNL     1       3.112   3.987  -5.906  1.00  0.00    -0.258 OA
ATOM     18  O   UNL     1       1.623   4.800  -4.512  1.00  0.00    -0.258 OA
ENDBRANCH   4  16
BRANCH   5  19
ATOM     19  O   UNL     1       4.023   9.088  -3.160  1.00  0.00    -0.504 OA
ATOM     20  H   UNL     1       3.929   8.558  -2.351  1.00  0.00     0.293 HD
ENDBRANCH   5  19
BRANCH   6  21
ATOM     21  O   UNL     1       2.776   6.631  -2.990  1.00  0.00    -0.500 OA
ATOM     22  H   UNL     1       1.841   6.889  -2.966  1.00  0.00     0.294 HD
ENDBRANCH   6  21
TORSDOF 5
ENDMDL
MODEL 9
REMARK VINA RESULT:    -4.095      3.691      6.758
REMARK INTER + INTRA:          -5.812
REMARK INTER:                  -4.835
REMARK INTRA:                  -0.977
REMARK UNBOUND:                -0.759
REMARK SMILES Cc1ccc(C(=O)c2cc(O)c(O)c([N+](=O)[O-])c2)cc1
REMARK SMILES IDX 8 1 18 2 9 3 14 4 10 5 12 6 6 7 7 8 5 9 4 10 19 11 3 12
REMARK SMILES IDX 20 13 2 14 1 15 15 16 17 17 16 18 11 19 13 21
REMARK H PARENT 11 20 13 22
ROOT
ATOM      1  C   UNL     1       4.091   7.054  -7.965  1.00  0.00     0.033 A 
ATOM      2  C   UNL     1       3.401   8.005  -8.680  1.00  0.00     0.102 A 
ATOM      3  C   UNL     1       5.447   7.119  -7.752  1.00  0.00     0.063 A 
ATOM      4  C   UNL     1       4.108   9.084  -9.211  1.00  0.00     0.315 A 
ATOM      5  C   UNL     1       6.155   8.197  -8.284  1.00  0.00     0.165 A 
ATOM      6  C   UNL     1       5.485   9.180  -9.013  1.00  0.00     0.237 A 
ENDROOT
BRANCH   1   7
ATOM      7  C   UNL     1       3.333   5.899  -7.396  1.00  0.00     0.193 C 
ATOM      8  O   UNL     1       2.644   5.229  -8.180  1.00  0.00    -0.289 OA
BRANCH   7   9
ATOM      9  C   UNL     1       3.385   5.551  -5.985  1.00  0.00     0.023 A 
ATOM     10  C   UNL     1       3.146   6.527  -5.017  1.00  0.00     0.012 A 
ATOM     11  C   UNL     1       3.673   4.242  -5.599  1.00  0.00     0.012 A 
ATOM     12  C   UNL     1       3.195   6.193  -3.664  1.00  0.00     0.004 A 
ATOM     13  C   UNL     1       3.723   3.908  -4.245  1.00  0.00     0.004 A 
ATOM     14  C   UNL     1       3.484   4.884  -3.277  1.00  0.00    -0.051 A 
ATOM     15  C   UNL     1       3.538   4.528  -1.831  1.00  0.00     0.044 C 
ENDBRANCH   7   9
ENDBRANCH   1   7
BRANCH   4  16
ATOM     16  N   UNL     1       3.408  10.076  -9.951  1.00  0.00     0.066 N 
ATOM     17  O   UNL     1       3.998  10.657 -10.893  1.00  0.00    -0.258 OA
ATOM     18  O   UNL     1       2.223  10.339  -9.642  1.00  0.00    -0.258 OA
ENDBRANCH   4  16
BRANCH   5  19
ATOM     19  O   UNL     1       7.500   8.278  -8.083  1.00  0.00    -0.504 OA
ATOM     20  H   UNL     1       7.956   8.314  -8.940  1.00  0.00     0.293 HD
ENDBRANCH   5  19
BRANCH   6  21
ATOM     21  O   UNL     1       6.188  10.230  -9.528  1.00  0.00    -0.500 OA
ATOM     22  H   UNL     1       5.944  11.046  -9.063  1.00  0.00     0.294 HD
ENDBRANCH   6  21
TORSDOF 5
ENDMDL
