MODEL 1
REMARK VINA RESULT:    -4.893      0.000      0.000
REMARK INTER + INTRA:          -6.805
REMARK INTER:                  -6.037
REMARK INTRA:                  -0.767
REMARK UNBOUND:                -0.767
REMARK SMILES Cc1ccc(C(=O)c2cc(O)c(O)c([N+](=O)[O-])c2)cc1
REMARK SMILES IDX 8 1 18 2 9 3 14 4 10 5 12 6 6 7 7 8 5 9 4 10 19 11 3 12
REMARK SMILES IDX 20 13 2 14 1 15 15 16 17 17 16 18 11 19 13 21
REMARK H PARENT 11 20 13 22
ROOT
ATOM      1  C   UNL     1       3.463   7.260  -3.010  1.00  0.00     0.033 A 
ATOM      2  C   UNL     1       3.191   7.131  -1.667  1.00  0.00     0.102 A 
ATOM      3  C   UNL     1       3.324   6.224  -3.902  1.00  0.00     0.063 A 
ATOM      4  C   UNL     1       2.754   5.895  -1.192  1.00  0.00     0.315 A 
ATOM      5  C   UNL     1       2.888   4.987  -3.426  1.00  0.00     0.165 A 
ATOM      6  C   UNL     1       2.603   4.822  -2.070  1.00  0.00     0.237 A 
ENDROOT
BRANCH   1   7
ATOM      7  C   UNL     1       3.931   8.584  -3.520  1.00  0.00     0.193 C 
ATOM      8  O   UNL     1       3.605   8.896  -4.675  1.00  0.00    -0.289 OA
BRANCH   7   9
ATOM      9  C   UNL     1       4.735   9.490  -2.715  1.00  0.00     0.023 A 
ATOM     10  C   UNL     1       6.125   9.481  -2.835  1.00  0.00     0.012 A 
ATOM     11  C   UNL     1       4.117  10.367  -1.824  1.00  0.00     0.012 A 
ATOM     12  C   UNL     1       6.896  10.350  -2.064  1.00  0.00     0.004 A 
ATOM     13  C   UNL     1       4.889  11.236  -1.052  1.00  0.00     0.004 A 
ATOM     14  C   UNL     1       6.279  11.228  -1.172  1.00  0.00    -0.051 A 
ATOM     15  C   UNL     1       7.104  12.155  -0.346  1.00  0.00     0.044 C 
ENDBRANCH   7   9
ENDBRANCH   1   7
BRANCH   4  16
ATOM     16  N   UNL     1       2.469   5.746   0.194  1.00  0.00     0.066 N 
ATOM     17  O   UNL     1       2.044   6.737   0.835  1.00  0.00    -0.258 OA
ATOM     18  O   UNL     1       2.649   4.629   0.733  1.00  0.00    -0.258 OA
ENDBRANCH   4  16
BRANCH   5  19
ATOM     19  O   UNL     1       2.744   3.949  -4.297  1.00  0.00    -0.504 OA
ATOM     20  H   UNL     1       3.588   3.473  -4.378  1.00  0.00     0.293 HD
ENDBRANCH   5  19
BRANCH   6  21
ATOM     21  O   UNL     1       2.176   3.608  -1.617  1.00  0.00    -0.500 OA
ATOM     22  H   UNL     1       1.405   3.321  -2.130  1.00  0.00     0.294 HD
ENDBRANCH   6  21
TORSDOF 5
ENDMDL
MODEL 2
REMARK VINA RESULT:    -4.797      2.048      3.568
REMARK INTER + INTRA:          -6.685
REMARK INTER:                  -5.896
REMARK INTRA:                  -0.790
REMARK UNBOUND:                -0.767
REMARK SMILES Cc1ccc(C(=O)c2cc(O)c(O)c([N+](=O)[O-])c2)cc1
REMARK SMILES IDX 8 1 18 2 9 3 14 4 10 5 12 6 6 7 7 8 5 9 4 10 19 11 3 12
REMARK SMILES IDX 20 13 2 14 1 15 15 16 17 17 16 18 11 19 13 21
REMARK H PARENT 11 20 13 22
ROOT
ATOM      1  C   UNL     1       4.317   7.092  -1.496  1.00  0.00     0.033 A 
ATOM      2  C   UNL     1       4.326   6.435  -2.705  1.00  0.00     0.102 A 
ATOM      3  C   UNL     1       3.598   6.649  -0.411  1.00  0.00     0.063 A 
ATOM      4  C   UNL     1       3.574   5.267  -2.835  1.00  0.00     0.315 A 
ATOM      5  C   UNL     1       2.845   5.481  -0.541  1.00  0.00     0.165 A 
ATOM      6  C   UNL     1       2.834   4.790  -1.754  1.00  0.00     0.237 A 
ENDROOT
BRANCH   1   7
ATOM      7  C   UNL     1       5.122   8.343  -1.357  1.00  0.00     0.193 C 
ATOM      8  O   UNL     1       5.712   8.522  -0.281  1.00  0.00    -0.289 OA
BRANCH   7   9
ATOM      9  C   UNL     1       5.226   9.325  -2.424  1.00  0.00     0.023 A 
ATOM     10  C   UNL     1       4.356  10.415  -2.456  1.00  0.00     0.012 A 
ATOM     11  C   UNL     1       6.197   9.179  -3.414  1.00  0.00     0.012 A 
ATOM     12  C   UNL     1       4.457  11.358  -3.479  1.00  0.00     0.004 A 
ATOM     13  C   UNL     1       6.298  10.122  -4.438  1.00  0.00     0.004 A 
ATOM     14  C   UNL     1       5.428  11.212  -4.470  1.00  0.00    -0.051 A 
ATOM     15  C   UNL     1       5.534  12.219  -5.564  1.00  0.00     0.044 C 
ENDBRANCH   7   9
ENDBRANCH   1   7
BRANCH   4  16
ATOM     16  N   UNL     1       3.574   4.576  -4.078  1.00  0.00     0.066 N 
ATOM     17  O   UNL     1       4.645   4.497  -4.727  1.00  0.00    -0.258 OA
ATOM     18  O   UNL     1       2.505   4.067  -4.488  1.00  0.00    -0.258 OA
ENDBRANCH   4  16
BRANCH   5  19
ATOM     19  O   UNL     1       2.127   5.027   0.524  1.00  0.00    -0.504 OA
ATOM     20  H   UNL     1       1.885   4.097   0.380  1.00  0.00     0.293 HD
ENDBRANCH   5  19
BRANCH   6  21
ATOM     21  O   UNL     1       2.094   3.649  -1.868  1.00  0.00    -0.500 OA
ATOM     22  H   UNL     1       1.542   3.697  -2.664  1.00  0.00     0.294 HD
ENDBRANCH   6  21
TORSDOF 5
ENDMDL
MODEL 3
REMARK VINA RESULT:    -4.059      9.630     12.479
REMARK INTER + INTRA:          -5.776
REMARK INTER:                  -4.978
REMARK INTRA:                  -0.798
REMARK UNBOUND:                -0.767
REMARK SMILES Cc1ccc(C(=O)c2cc(O)c(O)c([N+](=O)[O-])c2)cc1
REMARK SMILES IDX 8 1 18 2 9 3 14 4 10 5 12 6 6 7 7 8 5 9 4 10 19 11 3 12
REMARK SMILES IDX 20 13 2 14 1 15 15 16 17 17 16 18 11 19 13 21
REMARK H PARENT 11 20 13 22
ROOT
ATOM      1  C   UNL     1       5.891  17.053  -8.549  1.00  0.00     0.033 A 
ATOM      2  C   UNL     1       4.985  16.881  -9.570  1.00  0.00     0.102 A 
ATOM      3  C   UNL     1       7.162  17.536  -8.753  1.00  0.00     0.063 A 
ATOM      4  C   UNL     1       5.373  17.212 -10.869  1.00  0.00     0.315 A 
ATOM      5  C   UNL     1       7.550  17.866 -10.052  1.00  0.00     0.165 A 
ATOM      6  C   UNL     1       6.655  17.704 -11.110  1.00  0.00     0.237 A 
ENDROOT
BRANCH   1   7
ATOM      7  C   UNL     1       5.476  16.699  -7.158  1.00  0.00     0.193 C 
ATOM      8  O   UNL     1       5.168  17.632  -6.401  1.00  0.00    -0.289 OA
BRANCH   7   9
ATOM      9  C   UNL     1       5.426  15.324  -6.686  1.00  0.00     0.023 A 
ATOM     10  C   UNL     1       4.268  14.567  -6.865  1.00  0.00     0.012 A 
ATOM     11  C   UNL     1       6.536  14.763  -6.054  1.00  0.00     0.012 A 
ATOM     12  C   UNL     1       4.221  13.249  -6.412  1.00  0.00     0.004 A 
ATOM     13  C   UNL     1       6.489  13.444  -5.601  1.00  0.00     0.004 A 
ATOM     14  C   UNL     1       5.331  12.687  -5.780  1.00  0.00    -0.051 A 
ATOM     15  C   UNL     1       5.279  11.278  -5.295  1.00  0.00     0.044 C 
ENDBRANCH   7   9
ENDBRANCH   1   7
BRANCH   4  16
ATOM     16  N   UNL     1       4.447  17.039 -11.934  1.00  0.00     0.066 N 
ATOM     17  O   UNL     1       4.007  18.055 -12.525  1.00  0.00    -0.258 OA
ATOM     18  O   UNL     1       4.098  15.879 -12.252  1.00  0.00    -0.258 OA
ENDBRANCH   4  16
BRANCH   5  19
ATOM     19  O   UNL     1       8.806  18.347 -10.272  1.00  0.00    -0.504 OA
ATOM     20  H   UNL     1       8.762  19.103 -10.881  1.00  0.00     0.293 HD
ENDBRANCH   5  19
BRANCH   6  21
ATOM     21  O   UNL     1       7.046  18.032 -12.376  1.00  0.00    -0.500 OA
ATOM     22  H   UNL     1       8.013  18.001 -12.436  1.00  0.00     0.294 HD
ENDBRANCH   6  21
TORSDOF 5
ENDMDL
MODEL 4
REMARK VINA RESULT:    -3.945      9.804     12.524
REMARK INTER + INTRA:          -5.634
REMARK INTER:                  -4.764
REMARK INTRA:                  -0.870
REMARK UNBOUND:                -0.767
REMARK SMILES Cc1ccc(C(=O)c2cc(O)c(O)c([N+](=O)[O-])c2)cc1
REMARK SMILES IDX 8 1 18 2 9 3 14 4 10 5 12 6 6 7 7 8 5 9 4 10 19 11 3 12
REMARK SMILES IDX 20 13 2 14 1 15 15 16 17 17 16 18 11 19 13 21
REMARK H PARENT 11 20 13 22
ROOT
ATOM      1  C   UNL     1       5.363  17.027  -8.788  1.00  0.00     0.033 A 
ATOM      2  C   UNL     1       6.721  17.154  -8.970  1.00  0.00     0.102 A 
ATOM      3  C   UNL     1       4.453  17.228  -9.798  1.00  0.00     0.063 A 
ATOM      4  C   UNL     1       7.195  17.500 -10.235  1.00  0.00     0.315 A 
ATOM      5  C   UNL     1       4.927  17.575 -11.064  1.00  0.00     0.165 A 
ATOM      6  C   UNL     1       6.299  17.710 -11.283  1.00  0.00     0.237 A 
ENDROOT
BRANCH   1   7
ATOM      7  C   UNL     1       4.855  16.657  -7.433  1.00  0.00     0.193 C 
ATOM      8  O   UNL     1       4.293  17.544  -6.774  1.00  0.00    -0.289 OA
BRANCH   7   9
ATOM      9  C   UNL     1       5.001  15.318  -6.885  1.00  0.00     0.023 A 
ATOM     10  C   UNL     1       3.931  14.424  -6.934  1.00  0.00     0.012 A 
ATOM     11  C   UNL     1       6.210  14.927  -6.310  1.00  0.00     0.012 A 
ATOM     12  C   UNL     1       4.071  13.139  -6.409  1.00  0.00     0.004 A 
ATOM     13  C   UNL     1       6.351  13.642  -5.784  1.00  0.00     0.004 A 
ATOM     14  C   UNL     1       5.281  12.748  -5.834  1.00  0.00    -0.051 A 
ATOM     15  C   UNL     1       5.430  11.375  -5.271  1.00  0.00     0.044 C 
ENDBRANCH   7   9
ENDBRANCH   1   7
BRANCH   4  16
ATOM     16  N   UNL     1       8.596  17.634 -10.439  1.00  0.00     0.066 N 
ATOM     17  O   UNL     1       9.074  17.358 -11.565  1.00  0.00    -0.258 OA
ATOM     18  O   UNL     1       9.312  18.024  -9.487  1.00  0.00    -0.258 OA
ENDBRANCH   4  16
BRANCH   5  19
ATOM     19  O   UNL     1       4.039  17.777 -12.078  1.00  0.00    -0.504 OA
ATOM     20  H   UNL     1       3.694  16.922 -12.383  1.00  0.00     0.293 HD
ENDBRANCH   5  19
BRANCH   6  21
ATOM     21  O   UNL     1       6.750  18.049 -12.525  1.00  0.00    -0.500 OA
ATOM     22  H   UNL     1       6.267  18.826 -12.847  1.00  0.00     0.294 HD
ENDBRANCH   6  21
TORSDOF 5
ENDMDL
MODEL 5
REMARK VINA RESULT:    -3.937      1.592      2.911
REMARK INTER + INTRA:          -5.625
REMARK INTER:                  -4.921
REMARK INTRA:                  -0.704
REMARK UNBOUND:                -0.767
REMARK SMILES Cc1ccc(C(=O)c2cc(O)c(O)c([N+](=O)[O-])c2)cc1
REMARK SMILES IDX 8 1 18 2 9 3 14 4 10 5 12 6 6 7 7 8 5 9 4 10 19 11 3 12
REMARK SMILES IDX 20 13 2 14 1 15 15 16 17 17 16 18 11 19 13 21
REMARK H PARENT 11 20 13 22
ROOT
ATOM      1  C   UNL     1       2.656   7.320  -1.739  1.00  0.00     0.033 A 
ATOM      2  C   UNL     1       2.820   6.672  -2.941  1.00  0.00     0.102 A 
ATOM      3  C   UNL     1       2.543   6.655  -0.541  1.00  0.00     0.063 A 
ATOM      4  C   UNL     1       2.876   5.279  -2.945  1.00  0.00     0.315 A 
ATOM      5  C   UNL     1       2.598   5.261  -0.545  1.00  0.00     0.165 A 
ATOM      6  C   UNL     1       2.765   4.572  -1.748  1.00  0.00     0.237 A 
ENDROOT
BRANCH   1   7
ATOM      7  C   UNL     1       2.597   8.813  -1.734  1.00  0.00     0.193 C 
ATOM      8  O   UNL     1       1.473   9.338  -1.755  1.00  0.00    -0.289 OA
BRANCH   7   9
ATOM      9  C   UNL     1       3.792   9.641  -1.706  1.00  0.00     0.023 A 
ATOM     10  C   UNL     1       4.911   9.276  -2.454  1.00  0.00     0.012 A 
ATOM     11  C   UNL     1       3.819  10.801  -0.932  1.00  0.00     0.012 A 
ATOM     12  C   UNL     1       6.057  10.070  -2.427  1.00  0.00     0.004 A 
ATOM     13  C   UNL     1       4.966  11.596  -0.905  1.00  0.00     0.004 A 
ATOM     14  C   UNL     1       6.085  11.231  -1.653  1.00  0.00    -0.051 A 
ATOM     15  C   UNL     1       7.311  12.078  -1.623  1.00  0.00     0.044 C 
ENDBRANCH   7   9
ENDBRANCH   1   7
BRANCH   4  16
ATOM     16  N   UNL     1       3.045   4.595  -4.180  1.00  0.00     0.066 N 
ATOM     17  O   UNL     1       4.042   4.868  -4.892  1.00  0.00    -0.258 OA
ATOM     18  O   UNL     1       2.196   3.739  -4.521  1.00  0.00    -0.258 OA
ENDBRANCH   4  16
BRANCH   5  19
ATOM     19  O   UNL     1       2.489   4.584   0.632  1.00  0.00    -0.504 OA
ATOM     20  H   UNL     1       2.080   3.717   0.472  1.00  0.00     0.293 HD
ENDBRANCH   5  19
BRANCH   6  21
ATOM     21  O   UNL     1       2.817   3.209  -1.739  1.00  0.00    -0.500 OA
ATOM     22  H   UNL     1       2.447   2.863  -2.566  1.00  0.00     0.294 HD
ENDBRANCH   6  21
TORSDOF 5
ENDMDL
MODEL 6
REMARK VINA RESULT:    -3.884      1.781      2.371
REMARK INTER + INTRA:          -5.560
REMARK INTER:                  -4.798
REMARK INTRA:                  -0.762
REMARK UNBOUND:                -0.767
REMARK SMILES Cc1ccc(C(=O)c2cc(O)c(O)c([N+](=O)[O-])c2)cc1
REMARK SMILES IDX 8 1 18 2 9 3 14 4 10 5 12 6 6 7 7 8 5 9 4 10 19 11 3 12
REMARK SMILES IDX 20 13 2 14 1 15 15 16 17 17 16 18 11 19 13 21
REMARK H PARENT 11 20 13 22
ROOT
ATOM      1  C   UNL     1       4.791   6.204  -2.719  1.00  0.00     0.033 A 
ATOM      2  C   UNL     1       4.366   6.188  -1.410  1.00  0.00     0.102 A 
ATOM      3  C   UNL     1       4.185   5.469  -3.709  1.00  0.00     0.063 A 
ATOM      4  C   UNL     1       3.270   5.392  -1.075  1.00  0.00     0.315 A 
ATOM      5  C   UNL     1       3.090   4.672  -3.374  1.00  0.00     0.165 A 
ATOM      6  C   UNL     1       2.632   4.634  -2.056  1.00  0.00     0.237 A 
ENDROOT
BRANCH   1   7
ATOM      7  C   UNL     1       5.964   7.057  -3.078  1.00  0.00     0.193 C 
ATOM      8  O   UNL     1       7.078   6.511  -3.103  1.00  0.00    -0.289 OA
BRANCH   7   9
ATOM      9  C   UNL     1       5.834   8.471  -3.391  1.00  0.00     0.023 A 
ATOM     10  C   UNL     1       4.975   9.275  -2.641  1.00  0.00     0.012 A 
ATOM     11  C   UNL     1       6.566   9.023  -4.442  1.00  0.00     0.012 A 
ATOM     12  C   UNL     1       4.851  10.631  -2.942  1.00  0.00     0.004 A 
ATOM     13  C   UNL     1       6.442  10.380  -4.743  1.00  0.00     0.004 A 
ATOM     14  C   UNL     1       5.584  11.184  -3.992  1.00  0.00    -0.051 A 
ATOM     15  C   UNL     1       5.449  12.633  -4.314  1.00  0.00     0.044 C 
ENDBRANCH   7   9
ENDBRANCH   1   7
BRANCH   4  16
ATOM     16  N   UNL     1       2.819   5.366   0.273  1.00  0.00     0.066 N 
ATOM     17  O   UNL     1       2.503   4.265   0.785  1.00  0.00    -0.258 OA
ATOM     18  O   UNL     1       2.751   6.443   0.910  1.00  0.00    -0.258 OA
ENDBRANCH   4  16
BRANCH   5  19
ATOM     19  O   UNL     1       2.476   3.937  -4.343  1.00  0.00    -0.504 OA
ATOM     20  H   UNL     1       2.634   2.992  -4.184  1.00  0.00     0.293 HD
ENDBRANCH   5  19
BRANCH   6  21
ATOM     21  O   UNL     1       1.560   3.852  -1.740  1.00  0.00    -0.500 OA
ATOM     22  H   UNL     1       0.749   4.251  -2.094  1.00  0.00     0.294 HD
ENDBRANCH   6  21
TORSDOF 5
ENDMDL
MODEL 7
REMARK VINA RESULT:    -3.811      2.336      4.031
REMARK INTER + INTRA:          -5.469
REMARK INTER:                  -4.496
REMARK INTRA:                  -0.973
REMARK UNBOUND:                -0.767
REMARK SMILES Cc1ccc(C(=O)c2cc(O)c(O)c([N+](=O)[O-])c2)cc1
REMARK SMILES IDX 8 1 18 2 9 3 14 4 10 5 12 6 6 7 7 8 5 9 4 10 19 11 3 12
REMARK SMILES IDX 20 13 2 14 1 15 15 16 17 17 16 18 11 19 13 21
REMARK H PARENT 11 20 13 22
ROOT
ATOM      1  C   UNL     1       4.573  10.364  -2.047  1.00  0.00     0.033 A 
ATOM      2  C   UNL     1       4.614   9.001  -2.225  1.00  0.00     0.102 A 
ATOM      3  C   UNL     1       3.513  11.007  -1.453  1.00  0.00     0.063 A 
ATOM      4  C   UNL     1       3.534   8.237  -1.783  1.00  0.00     0.315 A 
ATOM      5  C   UNL     1       2.431  10.244  -1.012  1.00  0.00     0.165 A 
ATOM      6  C   UNL     1       2.443   8.858  -1.176  1.00  0.00     0.237 A 
ENDROOT
BRANCH   1   7
ATOM      7  C   UNL     1       5.730  11.182  -2.520  1.00  0.00     0.193 C 
ATOM      8  O   UNL     1       5.845  11.350  -3.744  1.00  0.00    -0.289 OA
BRANCH   7   9
ATOM      9  C   UNL     1       6.695  11.770  -1.606  1.00  0.00     0.023 A 
ATOM     10  C   UNL     1       7.222  11.007  -0.563  1.00  0.00     0.012 A 
ATOM     11  C   UNL     1       7.096  13.096  -1.771  1.00  0.00     0.012 A 
ATOM     12  C   UNL     1       8.148  11.571   0.314  1.00  0.00     0.004 A 
ATOM     13  C   UNL     1       8.023  13.660  -0.894  1.00  0.00     0.004 A 
ATOM     14  C   UNL     1       8.549  12.898   0.149  1.00  0.00    -0.051 A 
ATOM     15  C   UNL     1       9.538  13.500   1.087  1.00  0.00     0.044 C 
ENDBRANCH   7   9
ENDBRANCH   1   7
BRANCH   4  16
ATOM     16  N   UNL     1       3.563   6.827  -1.960  1.00  0.00     0.066 N 
ATOM     17  O   UNL     1       4.661   6.227  -1.867  1.00  0.00    -0.258 OA
ATOM     18  O   UNL     1       2.491   6.224  -2.201  1.00  0.00    -0.258 OA
ENDBRANCH   4  16
BRANCH   5  19
ATOM     19  O   UNL     1       1.372  10.864  -0.421  1.00  0.00    -0.504 OA
ATOM     20  H   UNL     1       1.672  11.331   0.377  1.00  0.00     0.293 HD
ENDBRANCH   5  19
BRANCH   6  21
ATOM     21  O   UNL     1       1.380   8.122  -0.740  1.00  0.00    -0.500 OA
ATOM     22  H   UNL     1       0.578   8.396  -1.211  1.00  0.00     0.294 HD
ENDBRANCH   6  21
TORSDOF 5
ENDMDL
MODEL 8
REMARK VINA RESULT:    -3.762      1.937      2.641
REMARK INTER + INTRA:          -5.408
REMARK INTER:                  -4.727
REMARK INTRA:                  -0.681
REMARK UNBOUND:                -0.767
REMARK SMILES Cc1ccc(C(=O)c2cc(O)c(O)c([N+](=O)[O-])c2)cc1
REMARK SMILES IDX 8 1 18 2 9 3 14 4 10 5 12 6 6 7 7 8 5 9 4 10 19 11 3 12
REMARK SMILES IDX 20 13 2 14 1 15 15 16 17 17 16 18 11 19 13 21
REMARK H PARENT 11 20 13 22
ROOT
ATOM      1  C   UNL     1       4.509   7.458  -1.682  1.00  0.00     0.033 A 
ATOM      2  C   UNL     1       3.738   7.073  -0.611  1.00  0.00     0.102 A 
ATOM      3  C   UNL     1       4.624   6.708  -2.828  1.00  0.00     0.063 A 
ATOM      4  C   UNL     1       3.040   5.867  -0.690  1.00  0.00     0.315 A 
ATOM      5  C   UNL     1       3.927   5.502  -2.908  1.00  0.00     0.165 A 
ATOM      6  C   UNL     1       3.134   5.082  -1.839  1.00  0.00     0.237 A 
ENDROOT
BRANCH   1   7
ATOM      7  C   UNL     1       5.257   8.749  -1.597  1.00  0.00     0.193 C 
ATOM      8  O   UNL     1       5.849   8.995  -0.535  1.00  0.00    -0.289 OA
BRANCH   7   9
ATOM      9  C   UNL     1       5.304   9.697  -2.699  1.00  0.00     0.023 A 
ATOM     10  C   UNL     1       4.406  10.763  -2.741  1.00  0.00     0.012 A 
ATOM     11  C   UNL     1       6.248   9.540  -3.713  1.00  0.00     0.012 A 
ATOM     12  C   UNL     1       4.452  11.672  -3.798  1.00  0.00     0.004 A 
ATOM     13  C   UNL     1       6.295  10.450  -4.771  1.00  0.00     0.004 A 
ATOM     14  C   UNL     1       5.396  11.516  -4.813  1.00  0.00    -0.051 A 
ATOM     15  C   UNL     1       5.444  12.487  -5.943  1.00  0.00     0.044 C 
ENDBRANCH   7   9
ENDBRANCH   1   7
BRANCH   4  16
ATOM     16  N   UNL     1       2.238   5.456   0.409  1.00  0.00     0.066 N 
ATOM     17  O   UNL     1       2.511   4.376   0.987  1.00  0.00    -0.258 OA
ATOM     18  O   UNL     1       1.284   6.184   0.769  1.00  0.00    -0.258 OA
ENDBRANCH   4  16
BRANCH   5  19
ATOM     19  O   UNL     1       4.028   4.744  -4.036  1.00  0.00    -0.504 OA
ATOM     20  H   UNL     1       4.195   5.320  -4.800  1.00  0.00     0.293 HD
ENDBRANCH   5  19
BRANCH   6  21
ATOM     21  O   UNL     1       2.457   3.901  -1.929  1.00  0.00    -0.500 OA
ATOM     22  H   UNL     1       2.896   3.230  -1.382  1.00  0.00     0.294 HD
ENDBRANCH   6  21
TORSDOF 5
ENDMDL
MODEL 9
REMARK VINA RESULT:    -3.658      3.201      4.425
REMARK INTER + INTRA:          -5.281
REMARK INTER:                  -4.293
REMARK INTRA:                  -0.988
REMARK UNBOUND:                -0.767
REMARK SMILES Cc1ccc(C(=O)c2cc(O)c(O)c([N+](=O)[O-])c2)cc1
REMARK SMILES IDX 8 1 18 2 9 3 14 4 10 5 12 6 6 7 7 8 5 9 4 10 19 11 3 12
REMARK SMILES IDX 20 13 2 14 1 15 15 16 17 17 16 18 11 19 13 21
REMARK H PARENT 11 20 13 22
ROOT
ATOM      1  C   UNL     1       4.487   9.764  -2.627  1.00  0.00     0.033 A 
ATOM      2  C   UNL     1       4.255   8.416  -2.771  1.00  0.00     0.102 A 
ATOM      3  C   UNL     1       3.692  10.580  -1.857  1.00  0.00     0.063 A 
ATOM      4  C   UNL     1       3.167   7.851  -2.105  1.00  0.00     0.315 A 
ATOM      5  C   UNL     1       2.604  10.015  -1.191  1.00  0.00     0.165 A 
ATOM      6  C   UNL     1       2.342   8.650  -1.315  1.00  0.00     0.237 A 
ENDROOT
BRANCH   1   7
ATOM      7  C   UNL     1       5.652  10.369  -3.340  1.00  0.00     0.193 C 
ATOM      8  O   UNL     1       6.778   9.926  -3.068  1.00  0.00    -0.289 OA
BRANCH   7   9
ATOM      9  C   UNL     1       5.500  11.434  -4.318  1.00  0.00     0.023 A 
ATOM     10  C   UNL     1       6.254  12.602  -4.201  1.00  0.00     0.012 A 
ATOM     11  C   UNL     1       4.600  11.288  -5.374  1.00  0.00     0.012 A 
ATOM     12  C   UNL     1       6.108  13.623  -5.140  1.00  0.00     0.004 A 
ATOM     13  C   UNL     1       4.454  12.309  -6.314  1.00  0.00     0.004 A 
ATOM     14  C   UNL     1       5.208  13.477  -6.197  1.00  0.00    -0.051 A 
ATOM     15  C   UNL     1       5.052  14.570  -7.199  1.00  0.00     0.044 C 
ENDBRANCH   7   9
ENDBRANCH   1   7
BRANCH   4  16
ATOM     16  N   UNL     1       2.916   6.458  -2.243  1.00  0.00     0.066 N 
ATOM     17  O   UNL     1       2.956   5.946  -3.388  1.00  0.00    -0.258 OA
ATOM     18  O   UNL     1       2.663   5.784  -1.218  1.00  0.00    -0.258 OA
ENDBRANCH   4  16
BRANCH   5  19
ATOM     19  O   UNL     1       1.806  10.808  -0.423  1.00  0.00    -0.504 OA
ATOM     20  H   UNL     1       2.357  11.393   0.124  1.00  0.00     0.293 HD
ENDBRANCH   5  19
BRANCH   6  21
ATOM     21  O   UNL     1       1.274   8.110  -0.658  1.00  0.00    -0.500 OA
ATOM     22  H   UNL     1       0.556   7.940  -1.288  1.00  0.00     0.294 HD
ENDBRANCH   6  21
TORSDOF 5
ENDMDL
