MODEL 1
REMARK VINA RESULT:    -6.694      0.000      0.000
REMARK INTER + INTRA:          -8.444
REMARK INTER:                  -7.868
REMARK INTRA:                  -0.576
REMARK UNBOUND:                -0.576
REMARK SMILES O=C(O)c1cc(-c2ccc(F)cc2F)ccc1O
REMARK SMILES IDX 6 1 5 2 15 3 4 4 17 5 16 6 7 7 13 8 12 9 8 10 10 11 9 12
REMARK SMILES IDX 14 13 11 14 2 15 1 16 3 17 18 19
REMARK H PARENT 3 18 18 20
ROOT
ATOM      1  C   UNL     1       3.963   7.240  -2.252  1.00  0.00    -0.014 A 
ATOM      2  C   UNL     1       3.923   6.355  -3.328  1.00  0.00     0.028 A 
ATOM      3  C   UNL     1       3.399   6.877  -1.029  1.00  0.00     0.013 A 
ATOM      4  C   UNL     1       3.320   5.105  -3.182  1.00  0.00     0.102 A 
ATOM      5  C   UNL     1       2.756   4.742  -1.959  1.00  0.00     0.130 A 
ATOM      6  C   UNL     1       2.796   5.628  -0.882  1.00  0.00     0.048 A 
ENDROOT
BRANCH   1   7
ATOM      7  C   UNL     1       4.587   8.537  -2.403  1.00  0.00     0.018 A 
ATOM      8  C   UNL     1       5.822   8.650  -3.043  1.00  0.00     0.133 A 
ATOM      9  C   UNL     1       6.421   9.902  -3.186  1.00  0.00     0.079 A 
ATOM     10  C   UNL     1       3.951   9.676  -1.909  1.00  0.00     0.015 A 
ATOM     11  C   UNL     1       5.785  11.040  -2.691  1.00  0.00     0.126 A 
ATOM     12  C   UNL     1       4.550  10.926  -2.052  1.00  0.00     0.040 A 
ATOM     13  F   UNL     1       6.448   7.565  -3.521  1.00  0.00    -0.206 F 
ATOM     14  F   UNL     1       6.359  12.242  -2.828  1.00  0.00    -0.207 F 
ENDBRANCH   1   7
BRANCH   4  15
ATOM     15  C   UNL     1       3.289   4.195  -4.319  1.00  0.00     0.339 C 
ATOM     16  O   UNL     1       2.277   3.661  -4.779  1.00  0.00    -0.246 OA
BRANCH  15  17
ATOM     17  O   UNL     1       4.526   3.981  -4.845  1.00  0.00    -0.478 OA
ATOM     18  H   UNL     1       5.174   3.717  -4.158  1.00  0.00     0.297 HD
ENDBRANCH  15  17
ENDBRANCH   4  15
BRANCH   5  19
ATOM     19  O   UNL     1       2.163   3.526  -1.796  1.00  0.00    -0.507 OA
ATOM     20  H   UNL     1       2.716   2.979  -1.211  1.00  0.00     0.293 HD
ENDBRANCH   5  19
TORSDOF 4
ENDMDL
MODEL 2
REMARK VINA RESULT:    -6.678      1.120      1.604
REMARK INTER + INTRA:          -8.425
REMARK INTER:                  -7.849
REMARK INTRA:                  -0.576
REMARK UNBOUND:                -0.576
REMARK SMILES O=C(O)c1cc(-c2ccc(F)cc2F)ccc1O
REMARK SMILES IDX 6 1 5 2 15 3 4 4 17 5 16 6 7 7 13 8 12 9 8 10 10 11 9 12
REMARK SMILES IDX 14 13 11 14 2 15 1 16 3 17 18 19
REMARK H PARENT 3 18 18 20
ROOT
ATOM      1  C   UNL     1       3.933   7.244  -2.246  1.00  0.00    -0.014 A 
ATOM      2  C   UNL     1       3.902   6.358  -3.322  1.00  0.00     0.028 A 
ATOM      3  C   UNL     1       3.365   6.879  -1.025  1.00  0.00     0.013 A 
ATOM      4  C   UNL     1       3.304   5.106  -3.178  1.00  0.00     0.102 A 
ATOM      5  C   UNL     1       2.736   4.741  -1.957  1.00  0.00     0.130 A 
ATOM      6  C   UNL     1       2.767   5.628  -0.880  1.00  0.00     0.048 A 
ENDROOT
BRANCH   1   7
ATOM      7  C   UNL     1       4.552   8.544  -2.395  1.00  0.00     0.018 A 
ATOM      8  C   UNL     1       3.904   9.687  -1.925  1.00  0.00     0.133 A 
ATOM      9  C   UNL     1       4.504  10.938  -2.071  1.00  0.00     0.079 A 
ATOM     10  C   UNL     1       5.800   8.652  -3.009  1.00  0.00     0.015 A 
ATOM     11  C   UNL     1       5.751  11.046  -2.686  1.00  0.00     0.126 A 
ATOM     12  C   UNL     1       6.399   9.902  -3.154  1.00  0.00     0.040 A 
ATOM     13  F   UNL     1       2.703   9.601  -1.336  1.00  0.00    -0.206 F 
ATOM     14  F   UNL     1       6.329  12.246  -2.826  1.00  0.00    -0.207 F 
ENDBRANCH   1   7
BRANCH   4  15
ATOM     15  C   UNL     1       3.283   4.195  -4.314  1.00  0.00     0.339 C 
ATOM     16  O   UNL     1       2.274   3.659  -4.780  1.00  0.00    -0.246 OA
BRANCH  15  17
ATOM     17  O   UNL     1       4.523   3.983  -4.832  1.00  0.00    -0.478 OA
ATOM     18  H   UNL     1       5.186   3.810  -4.131  1.00  0.00     0.297 HD
ENDBRANCH  15  17
ENDBRANCH   4  15
BRANCH   5  19
ATOM     19  O   UNL     1       2.148   3.522  -1.796  1.00  0.00    -0.507 OA
ATOM     20  H   UNL     1       2.496   3.106  -0.988  1.00  0.00     0.293 HD
ENDBRANCH   5  19
TORSDOF 4
ENDMDL
MODEL 3
REMARK VINA RESULT:    -6.676      1.665      3.162
REMARK INTER + INTRA:          -8.423
REMARK INTER:                  -7.852
REMARK INTRA:                  -0.570
REMARK UNBOUND:                -0.576
REMARK SMILES O=C(O)c1cc(-c2ccc(F)cc2F)ccc1O
REMARK SMILES IDX 6 1 5 2 15 3 4 4 17 5 16 6 7 7 13 8 12 9 8 10 10 11 9 12
REMARK SMILES IDX 14 13 11 14 2 15 1 16 3 17 18 19
REMARK H PARENT 3 18 18 20
ROOT
ATOM      1  C   UNL     1       3.904   7.270  -2.283  1.00  0.00    -0.014 A 
ATOM      2  C   UNL     1       3.360   6.955  -1.038  1.00  0.00     0.028 A 
ATOM      3  C   UNL     1       3.843   6.344  -3.325  1.00  0.00     0.013 A 
ATOM      4  C   UNL     1       2.756   5.714  -0.834  1.00  0.00     0.102 A 
ATOM      5  C   UNL     1       2.695   4.789  -1.876  1.00  0.00     0.130 A 
ATOM      6  C   UNL     1       3.239   5.104  -3.122  1.00  0.00     0.048 A 
ENDROOT
BRANCH   1   7
ATOM      7  C   UNL     1       4.532   8.556  -2.495  1.00  0.00     0.018 A 
ATOM      8  C   UNL     1       3.919   9.720  -2.031  1.00  0.00     0.133 A 
ATOM      9  C   UNL     1       4.528  10.958  -2.238  1.00  0.00     0.079 A 
ATOM     10  C   UNL     1       5.754   8.630  -3.163  1.00  0.00     0.015 A 
ATOM     11  C   UNL     1       5.749  11.032  -2.907  1.00  0.00     0.126 A 
ATOM     12  C   UNL     1       6.362   9.867  -3.369  1.00  0.00     0.040 A 
ATOM     13  F   UNL     1       2.743   9.667  -1.389  1.00  0.00    -0.206 F 
ATOM     14  F   UNL     1       6.334  12.220  -3.106  1.00  0.00    -0.207 F 
ENDBRANCH   1   7
BRANCH   4  15
ATOM     15  C   UNL     1       2.194   5.405   0.473  1.00  0.00     0.339 C 
ATOM     16  O   UNL     1       2.465   4.410   1.150  1.00  0.00    -0.246 OA
BRANCH  15  17
ATOM     17  O   UNL     1       1.310   6.351   0.895  1.00  0.00    -0.478 OA
ATOM     18  H   UNL     1       1.678   6.894   1.623  1.00  0.00     0.297 HD
ENDBRANCH  15  17
ENDBRANCH   4  15
BRANCH   5  19
ATOM     19  O   UNL     1       2.108   3.571  -1.697  1.00  0.00    -0.507 OA
ATOM     20  H   UNL     1       2.784   2.877  -1.785  1.00  0.00     0.293 HD
ENDBRANCH   5  19
TORSDOF 4
ENDMDL
MODEL 4
REMARK VINA RESULT:    -6.662      1.248      2.726
REMARK INTER + INTRA:          -8.407
REMARK INTER:                  -7.838
REMARK INTRA:                  -0.569
REMARK UNBOUND:                -0.576
REMARK SMILES O=C(O)c1cc(-c2ccc(F)cc2F)ccc1O
REMARK SMILES IDX 6 1 5 2 15 3 4 4 17 5 16 6 7 7 13 8 12 9 8 10 10 11 9 12
REMARK SMILES IDX 14 13 11 14 2 15 1 16 3 17 18 19
REMARK H PARENT 3 18 18 20
ROOT
ATOM      1  C   UNL     1       3.929   7.250  -2.280  1.00  0.00    -0.014 A 
ATOM      2  C   UNL     1       3.378   6.941  -1.037  1.00  0.00     0.028 A 
ATOM      3  C   UNL     1       3.870   6.321  -3.319  1.00  0.00     0.013 A 
ATOM      4  C   UNL     1       2.767   5.704  -0.832  1.00  0.00     0.102 A 
ATOM      5  C   UNL     1       2.708   4.775  -1.871  1.00  0.00     0.130 A 
ATOM      6  C   UNL     1       3.260   5.084  -3.115  1.00  0.00     0.048 A 
ENDROOT
BRANCH   1   7
ATOM      7  C   UNL     1       4.565   8.532  -2.494  1.00  0.00     0.018 A 
ATOM      8  C   UNL     1       5.801   8.604  -3.136  1.00  0.00     0.133 A 
ATOM      9  C   UNL     1       6.410   9.843  -3.339  1.00  0.00     0.079 A 
ATOM     10  C   UNL     1       3.937   9.698  -2.056  1.00  0.00     0.015 A 
ATOM     11  C   UNL     1       5.783  11.008  -2.901  1.00  0.00     0.126 A 
ATOM     12  C   UNL     1       4.546  10.936  -2.259  1.00  0.00     0.040 A 
ATOM     13  F   UNL     1       6.418   7.492  -3.561  1.00  0.00    -0.206 F 
ATOM     14  F   UNL     1       6.367  12.198  -3.096  1.00  0.00    -0.207 F 
ENDBRANCH   1   7
BRANCH   4  15
ATOM     15  C   UNL     1       2.197   5.401   0.473  1.00  0.00     0.339 C 
ATOM     16  O   UNL     1       2.464   4.409   1.156  1.00  0.00    -0.246 OA
BRANCH  15  17
ATOM     17  O   UNL     1       1.313   6.350   0.885  1.00  0.00    -0.478 OA
ATOM     18  H   UNL     1       1.746   7.220   1.014  1.00  0.00     0.297 HD
ENDBRANCH  15  17
ENDBRANCH   4  15
BRANCH   5  19
ATOM     19  O   UNL     1       2.115   3.561  -1.692  1.00  0.00    -0.507 OA
ATOM     20  H   UNL     1       1.638   3.563  -0.844  1.00  0.00     0.293 HD
ENDBRANCH   5  19
TORSDOF 4
ENDMDL
MODEL 5
REMARK VINA RESULT:    -4.321      3.950      6.177
REMARK INTER + INTRA:          -5.655
REMARK INTER:                  -4.586
REMARK INTRA:                  -1.069
REMARK UNBOUND:                -0.576
REMARK SMILES O=C(O)c1cc(-c2ccc(F)cc2F)ccc1O
REMARK SMILES IDX 6 1 5 2 15 3 4 4 17 5 16 6 7 7 13 8 12 9 8 10 10 11 9 12
REMARK SMILES IDX 14 13 11 14 2 15 1 16 3 17 18 19
REMARK H PARENT 3 18 18 20
ROOT
ATOM      1  C   UNL     1       4.929   9.219  -2.810  1.00  0.00    -0.014 A 
ATOM      2  C   UNL     1       4.897   9.922  -4.014  1.00  0.00     0.028 A 
ATOM      3  C   UNL     1       5.549   9.778  -1.692  1.00  0.00     0.013 A 
ATOM      4  C   UNL     1       5.485  11.184  -4.101  1.00  0.00     0.102 A 
ATOM      5  C   UNL     1       6.104  11.743  -2.983  1.00  0.00     0.130 A 
ATOM      6  C   UNL     1       6.136  11.039  -1.778  1.00  0.00     0.048 A 
ENDROOT
BRANCH   1   7
ATOM      7  C   UNL     1       4.321   7.908  -2.719  1.00  0.00     0.018 A 
ATOM      8  C   UNL     1       5.028   6.778  -3.131  1.00  0.00     0.133 A 
ATOM      9  C   UNL     1       4.438   5.517  -3.042  1.00  0.00     0.079 A 
ATOM     10  C   UNL     1       3.026   7.778  -2.219  1.00  0.00     0.015 A 
ATOM     11  C   UNL     1       3.143   5.386  -2.542  1.00  0.00     0.126 A 
ATOM     12  C   UNL     1       2.437   6.517  -2.130  1.00  0.00     0.040 A 
ATOM     13  F   UNL     1       6.273   6.887  -3.617  1.00  0.00    -0.206 F 
ATOM     14  F   UNL     1       2.576   4.176  -2.457  1.00  0.00    -0.207 F 
ENDBRANCH   1   7
BRANCH   4  15
ATOM     15  C   UNL     1       5.440  11.902  -5.367  1.00  0.00     0.339 C 
ATOM     16  O   UNL     1       6.139  12.875  -5.661  1.00  0.00    -0.246 OA
BRANCH  15  17
ATOM     17  O   UNL     1       4.523  11.380  -6.226  1.00  0.00    -0.478 OA
ATOM     18  H   UNL     1       3.866  12.050  -6.509  1.00  0.00     0.297 HD
ENDBRANCH  15  17
ENDBRANCH   4  15
BRANCH   5  19
ATOM     19  O   UNL     1       6.684  12.975  -3.046  1.00  0.00    -0.507 OA
ATOM     20  H   UNL     1       7.359  12.973  -3.747  1.00  0.00     0.293 HD
ENDBRANCH   5  19
TORSDOF 4
ENDMDL
MODEL 6
REMARK VINA RESULT:    -4.315      4.482      6.807
REMARK INTER + INTRA:          -5.648
REMARK INTER:                  -4.575
REMARK INTRA:                  -1.073
REMARK UNBOUND:                -0.576
REMARK SMILES O=C(O)c1cc(-c2ccc(F)cc2F)ccc1O
REMARK SMILES IDX 6 1 5 2 15 3 4 4 17 5 16 6 7 7 13 8 12 9 8 10 10 11 9 12
REMARK SMILES IDX 14 13 11 14 2 15 1 16 3 17 18 19
REMARK H PARENT 3 18 18 20
ROOT
ATOM      1  C   UNL     1       4.887   9.310  -2.335  1.00  0.00    -0.014 A 
ATOM      2  C   UNL     1       5.592   9.970  -1.329  1.00  0.00     0.028 A 
ATOM      3  C   UNL     1       4.797   9.874  -3.608  1.00  0.00     0.013 A 
ATOM      4  C   UNL     1       6.206  11.194  -1.594  1.00  0.00     0.102 A 
ATOM      5  C   UNL     1       6.116  11.757  -2.867  1.00  0.00     0.130 A 
ATOM      6  C   UNL     1       5.411  11.097  -3.874  1.00  0.00     0.048 A 
ENDROOT
BRANCH   1   7
ATOM      7  C   UNL     1       4.248   8.041  -2.059  1.00  0.00     0.018 A 
ATOM      8  C   UNL     1       2.977   8.007  -1.486  1.00  0.00     0.133 A 
ATOM      9  C   UNL     1       2.364   6.781  -1.222  1.00  0.00     0.079 A 
ATOM     10  C   UNL     1       4.906   6.851  -2.370  1.00  0.00     0.015 A 
ATOM     11  C   UNL     1       3.022   5.592  -1.531  1.00  0.00     0.126 A 
ATOM     12  C   UNL     1       4.293   5.627  -2.106  1.00  0.00     0.040 A 
ATOM     13  F   UNL     1       2.332   9.142  -1.179  1.00  0.00    -0.206 F 
ATOM     14  F   UNL     1       2.435   4.415  -1.278  1.00  0.00    -0.207 F 
ENDBRANCH   1   7
BRANCH   4  15
ATOM     15  C   UNL     1       6.938  11.867  -0.530  1.00  0.00     0.339 C 
ATOM     16  O   UNL     1       7.331  13.035  -0.563  1.00  0.00    -0.246 OA
BRANCH  15  17
ATOM     17  O   UNL     1       7.153  11.058   0.543  1.00  0.00    -0.478 OA
ATOM     18  H   UNL     1       8.062  10.691   0.546  1.00  0.00     0.297 HD
ENDBRANCH  15  17
ENDBRANCH   4  15
BRANCH   5  19
ATOM     19  O   UNL     1       6.710  12.952  -3.148  1.00  0.00    -0.507 OA
ATOM     20  H   UNL     1       6.190  13.667  -2.742  1.00  0.00     0.293 HD
ENDBRANCH   5  19
TORSDOF 4
ENDMDL
MODEL 7
REMARK VINA RESULT:    -4.270      4.084      6.354
REMARK INTER + INTRA:          -5.595
REMARK INTER:                  -4.559
REMARK INTRA:                  -1.036
REMARK UNBOUND:                -0.576
REMARK SMILES O=C(O)c1cc(-c2ccc(F)cc2F)ccc1O
REMARK SMILES IDX 6 1 5 2 15 3 4 4 17 5 16 6 7 7 13 8 12 9 8 10 10 11 9 12
REMARK SMILES IDX 14 13 11 14 2 15 1 16 3 17 18 19
REMARK H PARENT 3 18 18 20
ROOT
ATOM      1  C   UNL     1       4.848   9.204  -2.696  1.00  0.00    -0.014 A 
ATOM      2  C   UNL     1       4.828   9.896  -3.906  1.00  0.00     0.028 A 
ATOM      3  C   UNL     1       5.485   9.758  -1.586  1.00  0.00     0.013 A 
ATOM      4  C   UNL     1       5.446  11.143  -4.007  1.00  0.00     0.102 A 
ATOM      5  C   UNL     1       6.083  11.697  -2.897  1.00  0.00     0.130 A 
ATOM      6  C   UNL     1       6.102  11.004  -1.686  1.00  0.00     0.048 A 
ENDROOT
BRANCH   1   7
ATOM      7  C   UNL     1       4.209   7.910  -2.591  1.00  0.00     0.018 A 
ATOM      8  C   UNL     1       2.968   7.790  -1.964  1.00  0.00     0.133 A 
ATOM      9  C   UNL     1       2.356   6.540  -1.865  1.00  0.00     0.079 A 
ATOM     10  C   UNL     1       4.836   6.781  -3.120  1.00  0.00     0.015 A 
ATOM     11  C   UNL     1       2.983   5.412  -2.393  1.00  0.00     0.126 A 
ATOM     12  C   UNL     1       4.223   5.533  -3.021  1.00  0.00     0.040 A 
ATOM     13  F   UNL     1       2.354   8.864  -1.449  1.00  0.00    -0.206 F 
ATOM     14  F   UNL     1       2.396   4.212  -2.298  1.00  0.00    -0.207 F 
ENDBRANCH   1   7
BRANCH   4  15
ATOM     15  C   UNL     1       5.414  11.850  -5.280  1.00  0.00     0.339 C 
ATOM     16  O   UNL     1       6.120  12.817  -5.577  1.00  0.00    -0.246 OA
BRANCH  15  17
ATOM     17  O   UNL     1       4.500  11.326  -6.141  1.00  0.00    -0.478 OA
ATOM     18  H   UNL     1       4.928  10.814  -6.860  1.00  0.00     0.297 HD
ENDBRANCH  15  17
ENDBRANCH   4  15
BRANCH   5  19
ATOM     19  O   UNL     1       6.691  12.915  -2.974  1.00  0.00    -0.507 OA
ATOM     20  H   UNL     1       7.494  12.835  -3.518  1.00  0.00     0.293 HD
ENDBRANCH   5  19
TORSDOF 4
ENDMDL
MODEL 8
REMARK VINA RESULT:    -4.244      8.512     10.682
REMARK INTER + INTRA:          -5.565
REMARK INTER:                  -4.511
REMARK INTRA:                  -1.054
REMARK UNBOUND:                -0.576
REMARK SMILES O=C(O)c1cc(-c2ccc(F)cc2F)ccc1O
REMARK SMILES IDX 6 1 5 2 15 3 4 4 17 5 16 6 7 7 13 8 12 9 8 10 10 11 9 12
REMARK SMILES IDX 14 13 11 14 2 15 1 16 3 17 18 19
REMARK H PARENT 3 18 18 20
ROOT
ATOM      1  C   UNL     1       4.026  15.374  -7.689  1.00  0.00    -0.014 A 
ATOM      2  C   UNL     1       4.139  15.333  -9.078  1.00  0.00     0.028 A 
ATOM      3  C   UNL     1       3.330  16.416  -7.077  1.00  0.00     0.013 A 
ATOM      4  C   UNL     1       3.557  16.335  -9.856  1.00  0.00     0.102 A 
ATOM      5  C   UNL     1       2.862  17.377  -9.243  1.00  0.00     0.130 A 
ATOM      6  C   UNL     1       2.748  17.418  -7.853  1.00  0.00     0.048 A 
ENDROOT
BRANCH   1   7
ATOM      7  C   UNL     1       4.630  14.336  -6.882  1.00  0.00     0.018 A 
ATOM      8  C   UNL     1       5.952  14.463  -6.453  1.00  0.00     0.133 A 
ATOM      9  C   UNL     1       6.530  13.460  -5.675  1.00  0.00     0.079 A 
ATOM     10  C   UNL     1       3.888  13.207  -6.533  1.00  0.00     0.015 A 
ATOM     11  C   UNL     1       5.789  12.331  -5.327  1.00  0.00     0.126 A 
ATOM     12  C   UNL     1       4.468  12.206  -5.756  1.00  0.00     0.040 A 
ATOM     13  F   UNL     1       6.679  15.540  -6.782  1.00  0.00    -0.206 F 
ATOM     14  F   UNL     1       6.344  11.368  -4.580  1.00  0.00    -0.207 F 
ENDBRANCH   1   7
BRANCH   4  15
ATOM     15  C   UNL     1       3.687  16.274 -11.305  1.00  0.00     0.339 C 
ATOM     16  O   UNL     1       3.815  17.247 -12.052  1.00  0.00    -0.246 OA
BRANCH  15  17
ATOM     17  O   UNL     1       3.653  14.997 -11.775  1.00  0.00    -0.478 OA
ATOM     18  H   UNL     1       2.963  14.879 -12.461  1.00  0.00     0.297 HD
ENDBRANCH  15  17
ENDBRANCH   4  15
BRANCH   5  19
ATOM     19  O   UNL     1       2.285  18.365  -9.985  1.00  0.00    -0.507 OA
ATOM     20  H   UNL     1       1.437  18.614  -9.577  1.00  0.00     0.293 HD
ENDBRANCH   5  19
TORSDOF 4
ENDMDL
MODEL 9
REMARK VINA RESULT:    -3.758      9.499     11.621
REMARK INTER + INTRA:          -4.993
REMARK INTER:                  -4.002
REMARK INTRA:                  -0.991
REMARK UNBOUND:                -0.576
REMARK SMILES O=C(O)c1cc(-c2ccc(F)cc2F)ccc1O
REMARK SMILES IDX 6 1 5 2 15 3 4 4 17 5 16 6 7 7 13 8 12 9 8 10 10 11 9 12
REMARK SMILES IDX 14 13 11 14 2 15 1 16 3 17 18 19
REMARK H PARENT 3 18 18 20
ROOT
ATOM      1  C   UNL     1       5.101  16.834  -8.802  1.00  0.00    -0.014 A 
ATOM      2  C   UNL     1       5.237  15.631  -8.111  1.00  0.00     0.028 A 
ATOM      3  C   UNL     1       4.000  17.657  -8.560  1.00  0.00     0.013 A 
ATOM      4  C   UNL     1       4.273  15.249  -7.179  1.00  0.00     0.102 A 
ATOM      5  C   UNL     1       3.172  16.071  -6.937  1.00  0.00     0.130 A 
ATOM      6  C   UNL     1       3.036  17.275  -7.628  1.00  0.00     0.048 A 
ENDROOT
BRANCH   1   7
ATOM      7  C   UNL     1       6.100  17.231  -9.771  1.00  0.00     0.018 A 
ATOM      8  C   UNL     1       5.813  17.178 -11.135  1.00  0.00     0.133 A 
ATOM      9  C   UNL     1       6.780  17.561 -12.066  1.00  0.00     0.079 A 
ATOM     10  C   UNL     1       7.352  17.668  -9.338  1.00  0.00     0.015 A 
ATOM     11  C   UNL     1       8.031  17.997 -11.632  1.00  0.00     0.126 A 
ATOM     12  C   UNL     1       8.317  18.051 -10.268  1.00  0.00     0.040 A 
ATOM     13  F   UNL     1       4.616  16.757 -11.568  1.00  0.00    -0.206 F 
ATOM     14  F   UNL     1       8.959  18.365 -12.525  1.00  0.00    -0.207 F 
ENDBRANCH   1   7
BRANCH   4  15
ATOM     15  C   UNL     1       4.433  13.988  -6.467  1.00  0.00     0.339 C 
ATOM     16  O   UNL     1       3.513  13.276  -6.059  1.00  0.00    -0.246 OA
BRANCH  15  17
ATOM     17  O   UNL     1       5.741  13.656  -6.290  1.00  0.00    -0.478 OA
ATOM     18  H   UNL     1       5.868  12.685  -6.246  1.00  0.00     0.297 HD
ENDBRANCH  15  17
ENDBRANCH   4  15
BRANCH   5  19
ATOM     19  O   UNL     1       2.219  15.716  -6.029  1.00  0.00    -0.507 OA
ATOM     20  H   UNL     1       1.554  15.158  -6.469  1.00  0.00     0.293 HD
ENDBRANCH   5  19
TORSDOF 4
ENDMDL
