MODEL 1
REMARK VINA RESULT:    -6.706      0.000      0.000
REMARK INTER + INTRA:          -8.611
REMARK INTER:                  -7.882
REMARK INTRA:                  -0.729
REMARK UNBOUND:                -0.729
REMARK SMILES O=C(O)c1cc(-c2ccc(F)cc2F)ccc1O
REMARK SMILES IDX 6 1 5 2 15 3 4 4 17 5 16 6 7 7 13 8 12 9 8 10 10 11 9 12
REMARK SMILES IDX 14 13 11 14 2 15 1 16 3 17 18 19
REMARK H PARENT 3 18 18 20
ROOT
ATOM      1  C   UNL     1       3.717  -5.861  -1.347  1.00  0.00    -0.014 A 
ATOM      2  C   UNL     1       2.381  -5.759  -0.962  1.00  0.00     0.028 A 
ATOM      3  C   UNL     1       4.407  -4.728  -1.777  1.00  0.00     0.013 A 
ATOM      4  C   UNL     1       1.734  -4.524  -1.007  1.00  0.00     0.102 A 
ATOM      5  C   UNL     1       2.424  -3.391  -1.438  1.00  0.00     0.130 A 
ATOM      6  C   UNL     1       3.762  -3.493  -1.823  1.00  0.00     0.048 A 
ENDROOT
BRANCH   1   7
ATOM      7  C   UNL     1       4.388  -7.142  -1.301  1.00  0.00     0.018 A 
ATOM      8  C   UNL     1       4.358  -7.908  -0.135  1.00  0.00     0.133 A 
ATOM      9  C   UNL     1       5.007  -9.143  -0.095  1.00  0.00     0.079 A 
ATOM     10  C   UNL     1       5.066  -7.611  -2.426  1.00  0.00     0.015 A 
ATOM     11  C   UNL     1       5.685  -9.611  -1.220  1.00  0.00     0.126 A 
ATOM     12  C   UNL     1       5.714  -8.845  -2.386  1.00  0.00     0.040 A 
ATOM     13  F   UNL     1       3.714  -7.470   0.956  1.00  0.00    -0.206 F 
ATOM     14  F   UNL     1       6.308 -10.796  -1.183  1.00  0.00    -0.207 F 
ENDBRANCH   1   7
BRANCH   4  15
ATOM     15  C   UNL     1       0.338  -4.438  -0.601  1.00  0.00     0.339 C 
ATOM     16  O   UNL     1      -0.538  -3.797  -1.186  1.00  0.00    -0.246 OA
BRANCH  15  17
ATOM     17  O   UNL     1       0.081  -5.159   0.525  1.00  0.00    -0.478 OA
ATOM     18  H   UNL     1       0.215  -4.627   1.337  1.00  0.00     0.297 HD
ENDBRANCH  15  17
ENDBRANCH   4  15
BRANCH   5  19
ATOM     19  O   UNL     1       1.811  -2.175  -1.489  1.00  0.00    -0.507 OA
ATOM     20  H   UNL     1       2.186  -1.661  -2.225  1.00  0.00     0.293 HD
ENDBRANCH   5  19
TORSDOF 4
ENDMDL
MODEL 2
REMARK VINA RESULT:    -6.702      1.771      3.259
REMARK INTER + INTRA:          -8.607
REMARK INTER:                  -7.951
REMARK INTRA:                  -0.656
REMARK UNBOUND:                -0.729
REMARK SMILES O=C(O)c1cc(-c2ccc(F)cc2F)ccc1O
REMARK SMILES IDX 6 1 5 2 15 3 4 4 17 5 16 6 7 7 13 8 12 9 8 10 10 11 9 12
REMARK SMILES IDX 14 13 11 14 2 15 1 16 3 17 18 19
REMARK H PARENT 3 18 18 20
ROOT
ATOM      1  C   UNL     1       3.816  -5.817  -1.597  1.00  0.00    -0.014 A 
ATOM      2  C   UNL     1       4.541  -4.765  -2.154  1.00  0.00     0.028 A 
ATOM      3  C   UNL     1       2.510  -5.608  -1.156  1.00  0.00     0.013 A 
ATOM      4  C   UNL     1       3.960  -3.502  -2.271  1.00  0.00     0.102 A 
ATOM      5  C   UNL     1       2.654  -3.292  -1.830  1.00  0.00     0.130 A 
ATOM      6  C   UNL     1       1.928  -4.345  -1.272  1.00  0.00     0.048 A 
ENDROOT
BRANCH   1   7
ATOM      7  C   UNL     1       4.419  -7.127  -1.474  1.00  0.00     0.018 A 
ATOM      8  C   UNL     1       5.093  -7.693  -2.557  1.00  0.00     0.133 A 
ATOM      9  C   UNL     1       5.672  -8.956  -2.434  1.00  0.00     0.079 A 
ATOM     10  C   UNL     1       4.325  -7.824  -0.270  1.00  0.00     0.015 A 
ATOM     11  C   UNL     1       5.577  -9.653  -1.230  1.00  0.00     0.126 A 
ATOM     12  C   UNL     1       4.904  -9.087  -0.148  1.00  0.00     0.040 A 
ATOM     13  F   UNL     1       5.190  -7.037  -3.722  1.00  0.00    -0.206 F 
ATOM     14  F   UNL     1       6.133 -10.866  -1.112  1.00  0.00    -0.207 F 
ENDBRANCH   1   7
BRANCH   4  15
ATOM     15  C   UNL     1       4.734  -2.416  -2.857  1.00  0.00     0.339 C 
ATOM     16  O   UNL     1       4.813  -1.271  -2.405  1.00  0.00    -0.246 OA
BRANCH  15  17
ATOM     17  O   UNL     1       5.386  -2.796  -3.989  1.00  0.00    -0.478 OA
ATOM     18  H   UNL     1       4.926  -2.486  -4.797  1.00  0.00     0.297 HD
ENDBRANCH  15  17
ENDBRANCH   4  15
BRANCH   5  19
ATOM     19  O   UNL     1       2.068  -2.066  -1.936  1.00  0.00    -0.507 OA
ATOM     20  H   UNL     1       1.125  -2.144  -1.707  1.00  0.00     0.293 HD
ENDBRANCH   5  19
TORSDOF 4
ENDMDL
MODEL 3
REMARK VINA RESULT:    -6.683      1.384      2.822
REMARK INTER + INTRA:          -8.585
REMARK INTER:                  -7.946
REMARK INTRA:                  -0.638
REMARK UNBOUND:                -0.729
REMARK SMILES O=C(O)c1cc(-c2ccc(F)cc2F)ccc1O
REMARK SMILES IDX 6 1 5 2 15 3 4 4 17 5 16 6 7 7 13 8 12 9 8 10 10 11 9 12
REMARK SMILES IDX 14 13 11 14 2 15 1 16 3 17 18 19
REMARK H PARENT 3 18 18 20
ROOT
ATOM      1  C   UNL     1       3.797  -5.812  -1.590  1.00  0.00    -0.014 A 
ATOM      2  C   UNL     1       4.526  -4.760  -2.143  1.00  0.00     0.028 A 
ATOM      3  C   UNL     1       2.483  -5.606  -1.170  1.00  0.00     0.013 A 
ATOM      4  C   UNL     1       3.941  -3.500  -2.276  1.00  0.00     0.102 A 
ATOM      5  C   UNL     1       2.627  -3.294  -1.856  1.00  0.00     0.130 A 
ATOM      6  C   UNL     1       1.898  -4.347  -1.303  1.00  0.00     0.048 A 
ENDROOT
BRANCH   1   7
ATOM      7  C   UNL     1       4.404  -7.119  -1.451  1.00  0.00     0.018 A 
ATOM      8  C   UNL     1       4.302  -7.813  -0.245  1.00  0.00     0.133 A 
ATOM      9  C   UNL     1       4.889  -9.072  -0.115  1.00  0.00     0.079 A 
ATOM     10  C   UNL     1       5.090  -7.684  -2.526  1.00  0.00     0.015 A 
ATOM     11  C   UNL     1       5.575  -9.637  -1.189  1.00  0.00     0.126 A 
ATOM     12  C   UNL     1       5.676  -8.942  -2.395  1.00  0.00     0.040 A 
ATOM     13  F   UNL     1       3.648  -7.283   0.799  1.00  0.00    -0.206 F 
ATOM     14  F   UNL     1       6.138 -10.845  -1.065  1.00  0.00    -0.207 F 
ENDBRANCH   1   7
BRANCH   4  15
ATOM     15  C   UNL     1       4.719  -2.414  -2.856  1.00  0.00     0.339 C 
ATOM     16  O   UNL     1       4.806  -1.273  -2.395  1.00  0.00    -0.246 OA
BRANCH  15  17
ATOM     17  O   UNL     1       5.365  -2.789  -3.994  1.00  0.00    -0.478 OA
ATOM     18  H   UNL     1       6.102  -2.181  -4.212  1.00  0.00     0.297 HD
ENDBRANCH  15  17
ENDBRANCH   4  15
BRANCH   5  19
ATOM     19  O   UNL     1       2.037  -2.071  -1.977  1.00  0.00    -0.507 OA
ATOM     20  H   UNL     1       1.623  -1.833  -1.130  1.00  0.00     0.293 HD
ENDBRANCH   5  19
TORSDOF 4
ENDMDL
MODEL 4
REMARK VINA RESULT:    -5.241      1.183      1.449
REMARK INTER + INTRA:          -6.889
REMARK INTER:                  -6.195
REMARK INTRA:                  -0.694
REMARK UNBOUND:                -0.729
REMARK SMILES O=C(O)c1cc(-c2ccc(F)cc2F)ccc1O
REMARK SMILES IDX 6 1 5 2 15 3 4 4 17 5 16 6 7 7 13 8 12 9 8 10 10 11 9 12
REMARK SMILES IDX 14 13 11 14 2 15 1 16 3 17 18 19
REMARK H PARENT 3 18 18 20
ROOT
ATOM      1  C   UNL     1       4.052  -6.289  -1.638  1.00  0.00    -0.014 A 
ATOM      2  C   UNL     1       2.833  -6.058  -1.001  1.00  0.00     0.028 A 
ATOM      3  C   UNL     1       4.625  -5.293  -2.428  1.00  0.00     0.013 A 
ATOM      4  C   UNL     1       2.187  -4.831  -1.154  1.00  0.00     0.102 A 
ATOM      5  C   UNL     1       2.760  -3.835  -1.944  1.00  0.00     0.130 A 
ATOM      6  C   UNL     1       3.980  -4.066  -2.582  1.00  0.00     0.048 A 
ENDROOT
BRANCH   1   7
ATOM      7  C   UNL     1       4.722  -7.562  -1.481  1.00  0.00     0.018 A 
ATOM      8  C   UNL     1       4.003  -8.752  -1.606  1.00  0.00     0.133 A 
ATOM      9  C   UNL     1       4.653  -9.977  -1.453  1.00  0.00     0.079 A 
ATOM     10  C   UNL     1       6.088  -7.598  -1.206  1.00  0.00     0.015 A 
ATOM     11  C   UNL     1       6.020 -10.012  -1.177  1.00  0.00     0.126 A 
ATOM     12  C   UNL     1       6.737  -8.822  -1.054  1.00  0.00     0.040 A 
ATOM     13  F   UNL     1       2.689  -8.735  -1.867  1.00  0.00    -0.206 F 
ATOM     14  F   UNL     1       6.644 -11.188  -1.031  1.00  0.00    -0.207 F 
ENDBRANCH   1   7
BRANCH   4  15
ATOM     15  C   UNL     1       0.915  -4.610  -0.479  1.00  0.00     0.339 C 
ATOM     16  O   UNL     1       0.647  -4.962   0.672  1.00  0.00    -0.246 OA
BRANCH  15  17
ATOM     17  O   UNL     1       0.019  -3.954  -1.266  1.00  0.00    -0.478 OA
ATOM     18  H   UNL     1       0.455  -3.288  -1.838  1.00  0.00     0.297 HD
ENDBRANCH  15  17
ENDBRANCH   4  15
BRANCH   5  19
ATOM     19  O   UNL     1       2.146  -2.629  -2.106  1.00  0.00    -0.507 OA
ATOM     20  H   UNL     1       2.777  -1.920  -1.892  1.00  0.00     0.293 HD
ENDBRANCH   5  19
TORSDOF 4
ENDMDL
MODEL 5
REMARK VINA RESULT:    -5.240      1.718      2.964
REMARK INTER + INTRA:          -6.888
REMARK INTER:                  -6.193
REMARK INTRA:                  -0.695
REMARK UNBOUND:                -0.729
REMARK SMILES O=C(O)c1cc(-c2ccc(F)cc2F)ccc1O
REMARK SMILES IDX 6 1 5 2 15 3 4 4 17 5 16 6 7 7 13 8 12 9 8 10 10 11 9 12
REMARK SMILES IDX 14 13 11 14 2 15 1 16 3 17 18 19
REMARK H PARENT 3 18 18 20
ROOT
ATOM      1  C   UNL     1       3.933  -6.307  -1.339  1.00  0.00    -0.014 A 
ATOM      2  C   UNL     1       4.534  -5.285  -2.073  1.00  0.00     0.028 A 
ATOM      3  C   UNL     1       2.750  -6.062  -0.641  1.00  0.00     0.013 A 
ATOM      4  C   UNL     1       3.953  -4.017  -2.109  1.00  0.00     0.102 A 
ATOM      5  C   UNL     1       2.770  -3.772  -1.411  1.00  0.00     0.130 A 
ATOM      6  C   UNL     1       2.168  -4.795  -0.677  1.00  0.00     0.048 A 
ENDROOT
BRANCH   1   7
ATOM      7  C   UNL     1       4.536  -7.622  -1.300  1.00  0.00     0.018 A 
ATOM      8  C   UNL     1       5.907  -7.758  -1.078  1.00  0.00     0.133 A 
ATOM      9  C   UNL     1       6.484  -9.027  -1.042  1.00  0.00     0.079 A 
ATOM     10  C   UNL     1       3.743  -8.755  -1.482  1.00  0.00     0.015 A 
ATOM     11  C   UNL     1       5.691 -10.160  -1.225  1.00  0.00     0.126 A 
ATOM     12  C   UNL     1       4.320 -10.023  -1.445  1.00  0.00     0.040 A 
ATOM     13  F   UNL     1       6.683  -6.679  -0.904  1.00  0.00    -0.206 F 
ATOM     14  F   UNL     1       6.244 -11.379  -1.190  1.00  0.00    -0.207 F 
ENDBRANCH   1   7
BRANCH   4  15
ATOM     15  C   UNL     1       4.596  -2.963  -2.882  1.00  0.00     0.339 C 
ATOM     16  O   UNL     1       5.107  -3.105  -3.995  1.00  0.00    -0.246 OA
BRANCH  15  17
ATOM     17  O   UNL     1       4.579  -1.764  -2.238  1.00  0.00    -0.478 OA
ATOM     18  H   UNL     1       3.995  -1.118  -2.687  1.00  0.00     0.297 HD
ENDBRANCH  15  17
ENDBRANCH   4  15
BRANCH   5  19
ATOM     19  O   UNL     1       2.186  -2.541  -1.435  1.00  0.00    -0.507 OA
ATOM     20  H   UNL     1       2.796  -1.908  -1.852  1.00  0.00     0.293 HD
ENDBRANCH   5  19
TORSDOF 4
ENDMDL
MODEL 6
REMARK VINA RESULT:    -5.145      4.010      6.295
REMARK INTER + INTRA:          -6.776
REMARK INTER:                  -5.693
REMARK INTRA:                  -1.083
REMARK UNBOUND:                -0.729
REMARK SMILES O=C(O)c1cc(-c2ccc(F)cc2F)ccc1O
REMARK SMILES IDX 6 1 5 2 15 3 4 4 17 5 16 6 7 7 13 8 12 9 8 10 10 11 9 12
REMARK SMILES IDX 14 13 11 14 2 15 1 16 3 17 18 19
REMARK H PARENT 3 18 18 20
ROOT
ATOM      1  C   UNL     1       4.810  -8.207  -1.174  1.00  0.00    -0.014 A 
ATOM      2  C   UNL     1       4.198  -9.450  -1.335  1.00  0.00     0.028 A 
ATOM      3  C   UNL     1       6.186  -8.130  -0.962  1.00  0.00     0.013 A 
ATOM      4  C   UNL     1       4.962 -10.616  -1.284  1.00  0.00     0.102 A 
ATOM      5  C   UNL     1       6.339 -10.538  -1.073  1.00  0.00     0.130 A 
ATOM      6  C   UNL     1       6.951  -9.295  -0.912  1.00  0.00     0.048 A 
ENDROOT
BRANCH   1   7
ATOM      7  C   UNL     1       4.017  -6.998  -1.226  1.00  0.00     0.018 A 
ATOM      8  C   UNL     1       3.415  -6.505  -0.067  1.00  0.00     0.133 A 
ATOM      9  C   UNL     1       2.652  -5.338  -0.121  1.00  0.00     0.079 A 
ATOM     10  C   UNL     1       3.857  -6.324  -2.436  1.00  0.00     0.015 A 
ATOM     11  C   UNL     1       2.491  -4.665  -1.332  1.00  0.00     0.126 A 
ATOM     12  C   UNL     1       3.094  -5.158  -2.489  1.00  0.00     0.040 A 
ATOM     13  F   UNL     1       3.557  -7.142   1.104  1.00  0.00    -0.206 F 
ATOM     14  F   UNL     1       1.759  -3.545  -1.384  1.00  0.00    -0.207 F 
ENDBRANCH   1   7
BRANCH   4  15
ATOM     15  C   UNL     1       4.304 -11.904  -1.455  1.00  0.00     0.339 C 
ATOM     16  O   UNL     1       4.879 -12.981  -1.631  1.00  0.00    -0.246 OA
BRANCH  15  17
ATOM     17  O   UNL     1       2.948 -11.805  -1.399  1.00  0.00    -0.478 OA
ATOM     18  H   UNL     1       2.661 -11.055  -0.837  1.00  0.00     0.297 HD
ENDBRANCH  15  17
ENDBRANCH   4  15
BRANCH   5  19
ATOM     19  O   UNL     1       7.104 -11.666  -1.020  1.00  0.00    -0.507 OA
ATOM     20  H   UNL     1       7.593 -11.678  -0.179  1.00  0.00     0.293 HD
ENDBRANCH   5  19
TORSDOF 4
ENDMDL
MODEL 7
REMARK VINA RESULT:    -5.110      4.144      6.482
REMARK INTER + INTRA:          -6.736
REMARK INTER:                  -5.672
REMARK INTRA:                  -1.064
REMARK UNBOUND:                -0.729
REMARK SMILES O=C(O)c1cc(-c2ccc(F)cc2F)ccc1O
REMARK SMILES IDX 6 1 5 2 15 3 4 4 17 5 16 6 7 7 13 8 12 9 8 10 10 11 9 12
REMARK SMILES IDX 14 13 11 14 2 15 1 16 3 17 18 19
REMARK H PARENT 3 18 18 20
ROOT
ATOM      1  C   UNL     1       4.994  -8.276  -1.388  1.00  0.00    -0.014 A 
ATOM      2  C   UNL     1       4.207  -9.422  -1.508  1.00  0.00     0.028 A 
ATOM      3  C   UNL     1       6.364  -8.392  -1.156  1.00  0.00     0.013 A 
ATOM      4  C   UNL     1       4.791 -10.684  -1.395  1.00  0.00     0.102 A 
ATOM      5  C   UNL     1       6.161 -10.800  -1.163  1.00  0.00     0.130 A 
ATOM      6  C   UNL     1       6.948  -9.654  -1.043  1.00  0.00     0.048 A 
ENDROOT
BRANCH   1   7
ATOM      7  C   UNL     1       4.389  -6.967  -1.504  1.00  0.00     0.018 A 
ATOM      8  C   UNL     1       4.435  -6.278  -2.717  1.00  0.00     0.133 A 
ATOM      9  C   UNL     1       3.851  -5.016  -2.824  1.00  0.00     0.079 A 
ATOM     10  C   UNL     1       3.757  -6.394  -0.400  1.00  0.00     0.015 A 
ATOM     11  C   UNL     1       3.221  -4.443  -1.720  1.00  0.00     0.126 A 
ATOM     12  C   UNL     1       3.173  -5.133  -0.508  1.00  0.00     0.040 A 
ATOM     13  F   UNL     1       5.041  -6.814  -3.786  1.00  0.00    -0.206 F 
ATOM     14  F   UNL     1       2.660  -3.231  -1.822  1.00  0.00    -0.207 F 
ENDBRANCH   1   7
BRANCH   4  15
ATOM     15  C   UNL     1       3.952 -11.868  -1.524  1.00  0.00     0.339 C 
ATOM     16  O   UNL     1       4.251 -12.999  -1.134  1.00  0.00    -0.246 OA
BRANCH  15  17
ATOM     17  O   UNL     1       2.766 -11.599  -2.135  1.00  0.00    -0.478 OA
ATOM     18  H   UNL     1       2.046 -11.455  -1.486  1.00  0.00     0.297 HD
ENDBRANCH  15  17
ENDBRANCH   4  15
BRANCH   5  19
ATOM     19  O   UNL     1       6.751 -12.024  -1.050  1.00  0.00    -0.507 OA
ATOM     20  H   UNL     1       7.502 -11.959  -0.435  1.00  0.00     0.293 HD
ENDBRANCH   5  19
TORSDOF 4
ENDMDL
MODEL 8
REMARK VINA RESULT:    -5.108      4.402      6.735
REMARK INTER + INTRA:          -6.732
REMARK INTER:                  -5.664
REMARK INTRA:                  -1.068
REMARK UNBOUND:                -0.729
REMARK SMILES O=C(O)c1cc(-c2ccc(F)cc2F)ccc1O
REMARK SMILES IDX 6 1 5 2 15 3 4 4 17 5 16 6 7 7 13 8 12 9 8 10 10 11 9 12
REMARK SMILES IDX 14 13 11 14 2 15 1 16 3 17 18 19
REMARK H PARENT 3 18 18 20
ROOT
ATOM      1  C   UNL     1       4.931  -8.294  -1.274  1.00  0.00    -0.014 A 
ATOM      2  C   UNL     1       6.309  -8.343  -1.065  1.00  0.00     0.028 A 
ATOM      3  C   UNL     1       4.205  -9.476  -1.414  1.00  0.00     0.013 A 
ATOM      4  C   UNL     1       6.962  -9.574  -0.996  1.00  0.00     0.102 A 
ATOM      5  C   UNL     1       6.235 -10.756  -1.136  1.00  0.00     0.130 A 
ATOM      6  C   UNL     1       4.856 -10.708  -1.345  1.00  0.00     0.048 A 
ENDROOT
BRANCH   1   7
ATOM      7  C   UNL     1       4.254  -7.017  -1.347  1.00  0.00     0.018 A 
ATOM      8  C   UNL     1       3.617  -6.497  -0.220  1.00  0.00     0.133 A 
ATOM      9  C   UNL     1       2.965  -5.266  -0.294  1.00  0.00     0.079 A 
ATOM     10  C   UNL     1       4.241  -6.306  -2.546  1.00  0.00     0.015 A 
ATOM     11  C   UNL     1       2.951  -4.555  -1.494  1.00  0.00     0.126 A 
ATOM     12  C   UNL     1       3.590  -5.075  -2.620  1.00  0.00     0.040 A 
ATOM     13  F   UNL     1       3.618  -7.169   0.940  1.00  0.00    -0.206 F 
ATOM     14  F   UNL     1       2.326  -3.373  -1.566  1.00  0.00    -0.207 F 
ENDBRANCH   1   7
BRANCH   4  15
ATOM     15  C   UNL     1       8.401  -9.604  -0.777  1.00  0.00     0.339 C 
ATOM     16  O   UNL     1       9.122 -10.596  -0.904  1.00  0.00    -0.246 OA
BRANCH  15  17
ATOM     17  O   UNL     1       8.894  -8.390  -0.408  1.00  0.00    -0.478 OA
ATOM     18  H   UNL     1       9.156  -8.375   0.537  1.00  0.00     0.297 HD
ENDBRANCH  15  17
ENDBRANCH   4  15
BRANCH   5  19
ATOM     19  O   UNL     1       6.853 -11.970  -1.071  1.00  0.00    -0.507 OA
ATOM     20  H   UNL     1       6.177 -12.669  -1.036  1.00  0.00     0.293 HD
ENDBRANCH   5  19
TORSDOF 4
ENDMDL
MODEL 9
REMARK VINA RESULT:    -4.087      5.969      8.375
REMARK INTER + INTRA:          -5.534
REMARK INTER:                  -4.872
REMARK INTRA:                  -0.662
REMARK UNBOUND:                -0.729
REMARK SMILES O=C(O)c1cc(-c2ccc(F)cc2F)ccc1O
REMARK SMILES IDX 6 1 5 2 15 3 4 4 17 5 16 6 7 7 13 8 12 9 8 10 10 11 9 12
REMARK SMILES IDX 14 13 11 14 2 15 1 16 3 17 18 19
REMARK H PARENT 3 18 18 20
ROOT
ATOM      1  C   UNL     1       4.424 -12.112  -1.596  1.00  0.00    -0.014 A 
ATOM      2  C   UNL     1       4.973 -13.069  -0.743  1.00  0.00     0.028 A 
ATOM      3  C   UNL     1       3.532 -12.499  -2.596  1.00  0.00     0.013 A 
ATOM      4  C   UNL     1       4.630 -14.414  -0.889  1.00  0.00     0.102 A 
ATOM      5  C   UNL     1       3.738 -14.800  -1.890  1.00  0.00     0.130 A 
ATOM      6  C   UNL     1       3.189 -13.842  -2.743  1.00  0.00     0.048 A 
ENDROOT
BRANCH   1   7
ATOM      7  C   UNL     1       4.781 -10.718  -1.445  1.00  0.00     0.018 A 
ATOM      8  C   UNL     1       6.109 -10.355  -1.221  1.00  0.00     0.133 A 
ATOM      9  C   UNL     1       6.448  -9.009  -1.076  1.00  0.00     0.079 A 
ATOM     10  C   UNL     1       3.793  -9.737  -1.525  1.00  0.00     0.015 A 
ATOM     11  C   UNL     1       5.460  -8.028  -1.155  1.00  0.00     0.126 A 
ATOM     12  C   UNL     1       4.133  -8.392  -1.380  1.00  0.00     0.040 A 
ATOM     13  F   UNL     1       7.070 -11.286  -1.139  1.00  0.00    -0.206 F 
ATOM     14  F   UNL     1       5.785  -6.736  -1.016  1.00  0.00    -0.207 F 
ENDBRANCH   1   7
BRANCH   4  15
ATOM     15  C   UNL     1       5.214 -15.398   0.012  1.00  0.00     0.339 C 
ATOM     16  O   UNL     1       4.807 -16.551   0.169  1.00  0.00    -0.246 OA
BRANCH  15  17
ATOM     17  O   UNL     1       6.288 -14.908   0.688  1.00  0.00    -0.478 OA
ATOM     18  H   UNL     1       6.629 -15.550   1.346  1.00  0.00     0.297 HD
ENDBRANCH  15  17
ENDBRANCH   4  15
BRANCH   5  19
ATOM     19  O   UNL     1       3.389 -16.108  -2.049  1.00  0.00    -0.507 OA
ATOM     20  H   UNL     1       4.180 -16.664  -1.937  1.00  0.00     0.293 HD
ENDBRANCH   5  19
TORSDOF 4
ENDMDL
