MODEL 1
REMARK VINA RESULT:    -5.226      0.000      0.000
REMARK INTER + INTRA:          -7.233
REMARK INTER:                  -6.448
REMARK INTRA:                  -0.785
REMARK UNBOUND:                -0.785
REMARK SMILES Cc1ccc(C(=O)c2cc(O)c(O)c([N+](=O)[O-])c2)cc1
REMARK SMILES IDX 8 1 18 2 9 3 14 4 10 5 12 6 6 7 7 8 5 9 4 10 19 11 3 12
REMARK SMILES IDX 20 13 2 14 1 15 15 16 17 17 16 18 11 19 13 21
REMARK H PARENT 11 20 13 22
ROOT
ATOM      1  C   UNL     1       2.896  -6.031  -1.870  1.00  0.00     0.033 A 
ATOM      2  C   UNL     1       3.866  -5.147  -2.283  1.00  0.00     0.102 A 
ATOM      3  C   UNL     1       1.655  -5.629  -1.438  1.00  0.00     0.063 A 
ATOM      4  C   UNL     1       3.577  -3.783  -2.263  1.00  0.00     0.315 A 
ATOM      5  C   UNL     1       1.366  -4.264  -1.417  1.00  0.00     0.165 A 
ATOM      6  C   UNL     1       2.327  -3.340  -1.830  1.00  0.00     0.237 A 
ENDROOT
BRANCH   1   7
ATOM      7  C   UNL     1       3.206  -7.492  -1.891  1.00  0.00     0.193 C 
ATOM      8  O   UNL     1       2.278  -8.266  -2.173  1.00  0.00    -0.289 OA
BRANCH   7   9
ATOM      9  C   UNL     1       4.532  -8.013  -1.599  1.00  0.00     0.023 A 
ATOM     10  C   UNL     1       4.850  -8.422  -0.304  1.00  0.00     0.012 A 
ATOM     11  C   UNL     1       5.485  -8.103  -2.613  1.00  0.00     0.012 A 
ATOM     12  C   UNL     1       6.122  -8.921  -0.024  1.00  0.00     0.004 A 
ATOM     13  C   UNL     1       6.757  -8.603  -2.333  1.00  0.00     0.004 A 
ATOM     14  C   UNL     1       7.076  -9.012  -1.038  1.00  0.00    -0.051 A 
ATOM     15  C   UNL     1       8.436  -9.545  -0.738  1.00  0.00     0.044 C 
ENDBRANCH   7   9
ENDBRANCH   1   7
BRANCH   4  16
ATOM     16  N   UNL     1       4.569  -2.857  -2.687  1.00  0.00     0.066 N 
ATOM     17  O   UNL     1       5.395  -3.212  -3.562  1.00  0.00    -0.258 OA
ATOM     18  O   UNL     1       4.590  -1.713  -2.174  1.00  0.00    -0.258 OA
ENDBRANCH   4  16
BRANCH   5  19
ATOM     19  O   UNL     1       0.140  -3.847  -0.993  1.00  0.00    -0.504 OA
ATOM     20  H   UNL     1      -0.237  -3.230  -1.643  1.00  0.00     0.293 HD
ENDBRANCH   5  19
BRANCH   6  21
ATOM     21  O   UNL     1       2.032  -2.008  -1.806  1.00  0.00    -0.500 OA
ATOM     22  H   UNL     1       1.989  -1.667  -2.713  1.00  0.00     0.294 HD
ENDBRANCH   6  21
TORSDOF 5
ENDMDL
MODEL 2
REMARK VINA RESULT:    -5.223      2.001      3.533
REMARK INTER + INTRA:          -7.230
REMARK INTER:                  -6.450
REMARK INTRA:                  -0.780
REMARK UNBOUND:                -0.785
REMARK SMILES Cc1ccc(C(=O)c2cc(O)c(O)c([N+](=O)[O-])c2)cc1
REMARK SMILES IDX 8 1 18 2 9 3 14 4 10 5 12 6 6 7 7 8 5 9 4 10 19 11 3 12
REMARK SMILES IDX 20 13 2 14 1 15 15 16 17 17 16 18 11 19 13 21
REMARK H PARENT 11 20 13 22
ROOT
ATOM      1  C   UNL     1       4.419  -5.233  -1.202  1.00  0.00     0.033 A 
ATOM      2  C   UNL     1       3.104  -5.417  -0.845  1.00  0.00     0.102 A 
ATOM      3  C   UNL     1       4.885  -4.064  -1.757  1.00  0.00     0.063 A 
ATOM      4  C   UNL     1       2.203  -4.373  -1.053  1.00  0.00     0.315 A 
ATOM      5  C   UNL     1       3.984  -3.020  -1.967  1.00  0.00     0.165 A 
ATOM      6  C   UNL     1       2.642  -3.174  -1.614  1.00  0.00     0.237 A 
ENDROOT
BRANCH   1   7
ATOM      7  C   UNL     1       5.384  -6.351  -0.978  1.00  0.00     0.193 C 
ATOM      8  O   UNL     1       6.541  -6.047  -0.650  1.00  0.00    -0.289 OA
BRANCH   7   9
ATOM      9  C   UNL     1       5.008  -7.747  -1.132  1.00  0.00     0.023 A 
ATOM     10  C   UNL     1       5.229  -8.399  -2.346  1.00  0.00     0.012 A 
ATOM     11  C   UNL     1       4.428  -8.435  -0.067  1.00  0.00     0.012 A 
ATOM     12  C   UNL     1       4.868  -9.739  -2.493  1.00  0.00     0.004 A 
ATOM     13  C   UNL     1       4.068  -9.775  -0.213  1.00  0.00     0.004 A 
ATOM     14  C   UNL     1       4.288 -10.427  -1.427  1.00  0.00    -0.051 A 
ATOM     15  C   UNL     1       3.902 -11.858  -1.585  1.00  0.00     0.044 C 
ENDBRANCH   7   9
ENDBRANCH   1   7
BRANCH   4  16
ATOM     16  N   UNL     1       0.840  -4.549  -0.688  1.00  0.00     0.066 N 
ATOM     17  O   UNL     1       0.563  -5.304   0.275  1.00  0.00    -0.258 OA
ATOM     18  O   UNL     1      -0.044  -3.944  -1.338  1.00  0.00    -0.258 OA
ENDBRANCH   4  16
BRANCH   5  19
ATOM     19  O   UNL     1       4.427  -1.854  -2.515  1.00  0.00    -0.504 OA
ATOM     20  H   UNL     1       4.144  -1.107  -1.964  1.00  0.00     0.293 HD
ENDBRANCH   5  19
BRANCH   6  21
ATOM     21  O   UNL     1       1.771  -2.145  -1.824  1.00  0.00    -0.500 OA
ATOM     22  H   UNL     1       2.237  -1.403  -2.239  1.00  0.00     0.294 HD
ENDBRANCH   6  21
TORSDOF 5
ENDMDL
MODEL 3
REMARK VINA RESULT:    -4.777      1.649      2.957
REMARK INTER + INTRA:          -6.679
REMARK INTER:                  -6.251
REMARK INTRA:                  -0.429
REMARK UNBOUND:                -0.785
REMARK SMILES Cc1ccc(C(=O)c2cc(O)c(O)c([N+](=O)[O-])c2)cc1
REMARK SMILES IDX 8 1 18 2 9 3 14 4 10 5 12 6 6 7 7 8 5 9 4 10 19 11 3 12
REMARK SMILES IDX 20 13 2 14 1 15 15 16 17 17 16 18 11 19 13 21
REMARK H PARENT 11 20 13 22
ROOT
ATOM      1  C   UNL     1       3.661  -4.918  -2.819  1.00  0.00     0.033 A 
ATOM      2  C   UNL     1       2.458  -5.024  -2.161  1.00  0.00     0.102 A 
ATOM      3  C   UNL     1       4.378  -3.747  -2.880  1.00  0.00     0.063 A 
ATOM      4  C   UNL     1       1.943  -3.894  -1.526  1.00  0.00     0.315 A 
ATOM      5  C   UNL     1       3.863  -2.616  -2.246  1.00  0.00     0.165 A 
ATOM      6  C   UNL     1       2.646  -2.689  -1.568  1.00  0.00     0.237 A 
ENDROOT
BRANCH   1   7
ATOM      7  C   UNL     1       4.212  -6.129  -3.499  1.00  0.00     0.193 C 
ATOM      8  O   UNL     1       4.040  -6.222  -4.724  1.00  0.00    -0.289 OA
BRANCH   7   9
ATOM      9  C   UNL     1       4.925  -7.172  -2.778  1.00  0.00     0.023 A 
ATOM     10  C   UNL     1       4.603  -7.446  -1.449  1.00  0.00     0.012 A 
ATOM     11  C   UNL     1       5.931  -7.898  -3.416  1.00  0.00     0.012 A 
ATOM     12  C   UNL     1       5.287  -8.445  -0.758  1.00  0.00     0.004 A 
ATOM     13  C   UNL     1       6.615  -8.898  -2.725  1.00  0.00     0.004 A 
ATOM     14  C   UNL     1       6.293  -9.172  -1.396  1.00  0.00    -0.051 A 
ATOM     15  C   UNL     1       7.025 -10.240  -0.656  1.00  0.00     0.044 C 
ENDBRANCH   7   9
ENDBRANCH   1   7
BRANCH   4  16
ATOM     16  N   UNL     1       0.701  -3.987  -0.841  1.00  0.00     0.066 N 
ATOM     17  O   UNL     1      -0.350  -3.666  -1.446  1.00  0.00    -0.258 OA
ATOM     18  O   UNL     1       0.693  -4.389   0.346  1.00  0.00    -0.258 OA
ENDBRANCH   4  16
BRANCH   5  19
ATOM     19  O   UNL     1       4.561  -1.447  -2.296  1.00  0.00    -0.504 OA
ATOM     20  H   UNL     1       5.505  -1.625  -2.158  1.00  0.00     0.293 HD
ENDBRANCH   5  19
BRANCH   6  21
ATOM     21  O   UNL     1       2.153  -1.576  -0.952  1.00  0.00    -0.500 OA
ATOM     22  H   UNL     1       2.531  -1.502  -0.062  1.00  0.00     0.294 HD
ENDBRANCH   6  21
TORSDOF 5
ENDMDL
MODEL 4
REMARK VINA RESULT:    -4.773      1.774      2.198
REMARK INTER + INTRA:          -6.674
REMARK INTER:                  -6.063
REMARK INTRA:                  -0.611
REMARK UNBOUND:                -0.785
REMARK SMILES Cc1ccc(C(=O)c2cc(O)c(O)c([N+](=O)[O-])c2)cc1
REMARK SMILES IDX 8 1 18 2 9 3 14 4 10 5 12 6 6 7 7 8 5 9 4 10 19 11 3 12
REMARK SMILES IDX 20 13 2 14 1 15 15 16 17 17 16 18 11 19 13 21
REMARK H PARENT 11 20 13 22
ROOT
ATOM      1  C   UNL     1       3.098  -5.134  -0.307  1.00  0.00     0.033 A 
ATOM      2  C   UNL     1       4.014  -4.329  -0.942  1.00  0.00     0.102 A 
ATOM      3  C   UNL     1       1.740  -4.947  -0.413  1.00  0.00     0.063 A 
ATOM      4  C   UNL     1       3.546  -3.277  -1.729  1.00  0.00     0.315 A 
ATOM      5  C   UNL     1       1.271  -3.894  -1.199  1.00  0.00     0.165 A 
ATOM      6  C   UNL     1       2.174  -3.059  -1.858  1.00  0.00     0.237 A 
ENDROOT
BRANCH   1   7
ATOM      7  C   UNL     1       3.599  -6.261   0.535  1.00  0.00     0.193 C 
ATOM      8  O   UNL     1       3.642  -6.079   1.762  1.00  0.00    -0.289 OA
BRANCH   7   9
ATOM      9  C   UNL     1       4.026  -7.530  -0.033  1.00  0.00     0.023 A 
ATOM     10  C   UNL     1       4.567  -7.572  -1.318  1.00  0.00     0.012 A 
ATOM     11  C   UNL     1       3.894  -8.705   0.707  1.00  0.00     0.012 A 
ATOM     12  C   UNL     1       4.976  -8.789  -1.862  1.00  0.00     0.004 A 
ATOM     13  C   UNL     1       4.303  -9.923   0.163  1.00  0.00     0.004 A 
ATOM     14  C   UNL     1       4.845  -9.965  -1.122  1.00  0.00    -0.051 A 
ATOM     15  C   UNL     1       5.281 -11.266  -1.706  1.00  0.00     0.044 C 
ENDBRANCH   7   9
ENDBRANCH   1   7
BRANCH   4  16
ATOM     16  N   UNL     1       4.482  -2.436  -2.392  1.00  0.00     0.066 N 
ATOM     17  O   UNL     1       5.265  -2.944  -3.230  1.00  0.00    -0.258 OA
ATOM     18  O   UNL     1       4.495  -1.213  -2.121  1.00  0.00    -0.258 OA
ENDBRANCH   4  16
BRANCH   5  19
ATOM     19  O   UNL     1      -0.072  -3.693  -1.316  1.00  0.00    -0.504 OA
ATOM     20  H   UNL     1      -0.247  -2.753  -1.487  1.00  0.00     0.293 HD
ENDBRANCH   5  19
BRANCH   6  21
ATOM     21  O   UNL     1       1.704  -2.033  -2.625  1.00  0.00    -0.500 OA
ATOM     22  H   UNL     1       1.811  -2.251  -3.564  1.00  0.00     0.294 HD
ENDBRANCH   6  21
TORSDOF 5
ENDMDL
MODEL 5
REMARK VINA RESULT:    -4.627      3.586      7.186
REMARK INTER + INTRA:          -6.494
REMARK INTER:                  -5.546
REMARK INTRA:                  -0.948
REMARK UNBOUND:                -0.785
REMARK SMILES Cc1ccc(C(=O)c2cc(O)c(O)c([N+](=O)[O-])c2)cc1
REMARK SMILES IDX 8 1 18 2 9 3 14 4 10 5 12 6 6 7 7 8 5 9 4 10 19 11 3 12
REMARK SMILES IDX 20 13 2 14 1 15 15 16 17 17 16 18 11 19 13 21
REMARK H PARENT 11 20 13 22
ROOT
ATOM      1  C   UNL     1       5.533  -8.480  -2.010  1.00  0.00     0.033 A 
ATOM      2  C   UNL     1       4.747  -9.606  -1.923  1.00  0.00     0.102 A 
ATOM      3  C   UNL     1       6.862  -8.469  -1.659  1.00  0.00     0.063 A 
ATOM      4  C   UNL     1       5.325 -10.788  -1.460  1.00  0.00     0.315 A 
ATOM      5  C   UNL     1       7.440  -9.651  -1.194  1.00  0.00     0.165 A 
ATOM      6  C   UNL     1       6.671 -10.811  -1.095  1.00  0.00     0.237 A 
ENDROOT
BRANCH   1   7
ATOM      7  C   UNL     1       4.915  -7.214  -2.507  1.00  0.00     0.193 C 
ATOM      8  O   UNL     1       5.409  -6.700  -3.522  1.00  0.00    -0.289 OA
BRANCH   7   9
ATOM      9  C   UNL     1       3.780  -6.589  -1.847  1.00  0.00     0.023 A 
ATOM     10  C   UNL     1       2.713  -6.104  -2.604  1.00  0.00     0.012 A 
ATOM     11  C   UNL     1       3.758  -6.475  -0.457  1.00  0.00     0.012 A 
ATOM     12  C   UNL     1       1.625  -5.505  -1.970  1.00  0.00     0.004 A 
ATOM     13  C   UNL     1       2.669  -5.876   0.177  1.00  0.00     0.004 A 
ATOM     14  C   UNL     1       1.602  -5.391  -0.579  1.00  0.00    -0.051 A 
ATOM     15  C   UNL     1       0.439  -4.749   0.097  1.00  0.00     0.044 C 
ENDBRANCH   7   9
ENDBRANCH   1   7
BRANCH   4  16
ATOM     16  N   UNL     1       4.525 -11.960  -1.365  1.00  0.00     0.066 N 
ATOM     17  O   UNL     1       5.064 -13.078  -1.549  1.00  0.00    -0.258 OA
ATOM     18  O   UNL     1       3.306 -11.842  -1.100  1.00  0.00    -0.258 OA
ENDBRANCH   4  16
BRANCH   5  19
ATOM     19  O   UNL     1       8.756  -9.659  -0.842  1.00  0.00    -0.504 OA
ATOM     20  H   UNL     1       9.301  -9.836  -1.626  1.00  0.00     0.293 HD
ENDBRANCH   5  19
BRANCH   6  21
ATOM     21  O   UNL     1       7.247 -11.961  -0.640  1.00  0.00    -0.500 OA
ATOM     22  H   UNL     1       6.575 -12.658  -0.571  1.00  0.00     0.294 HD
ENDBRANCH   6  21
TORSDOF 5
ENDMDL
MODEL 6
REMARK VINA RESULT:    -4.608      3.688      6.538
REMARK INTER + INTRA:          -6.471
REMARK INTER:                  -5.502
REMARK INTRA:                  -0.969
REMARK UNBOUND:                -0.785
REMARK SMILES Cc1ccc(C(=O)c2cc(O)c(O)c([N+](=O)[O-])c2)cc1
REMARK SMILES IDX 8 1 18 2 9 3 14 4 10 5 12 6 6 7 7 8 5 9 4 10 19 11 3 12
REMARK SMILES IDX 20 13 2 14 1 15 15 16 17 17 16 18 11 19 13 21
REMARK H PARENT 11 20 13 22
ROOT
ATOM      1  C   UNL     1       4.782  -8.752  -0.621  1.00  0.00     0.033 A 
ATOM      2  C   UNL     1       6.157  -8.806  -0.603  1.00  0.00     0.102 A 
ATOM      3  C   UNL     1       3.996  -9.844  -0.899  1.00  0.00     0.063 A 
ATOM      4  C   UNL     1       6.779 -10.024  -0.878  1.00  0.00     0.315 A 
ATOM      5  C   UNL     1       4.619 -11.062  -1.174  1.00  0.00     0.165 A 
ATOM      6  C   UNL     1       6.011 -11.152  -1.163  1.00  0.00     0.237 A 
ENDROOT
BRANCH   1   7
ATOM      7  C   UNL     1       4.115  -7.448  -0.327  1.00  0.00     0.193 C 
ATOM      8  O   UNL     1       3.337  -7.412   0.639  1.00  0.00    -0.289 OA
BRANCH   7   9
ATOM      9  C   UNL     1       4.350  -6.254  -1.123  1.00  0.00     0.023 A 
ATOM     10  C   UNL     1       4.609  -5.036  -0.495  1.00  0.00     0.012 A 
ATOM     11  C   UNL     1       4.317  -6.327  -2.516  1.00  0.00     0.012 A 
ATOM     12  C   UNL     1       4.835  -3.892  -1.259  1.00  0.00     0.004 A 
ATOM     13  C   UNL     1       4.543  -5.182  -3.281  1.00  0.00     0.004 A 
ATOM     14  C   UNL     1       4.802  -3.964  -2.652  1.00  0.00    -0.051 A 
ATOM     15  C   UNL     1       5.043  -2.740  -3.468  1.00  0.00     0.044 C 
ENDBRANCH   7   9
ENDBRANCH   1   7
BRANCH   4  16
ATOM     16  N   UNL     1       8.200 -10.095  -0.862  1.00  0.00     0.066 N 
ATOM     17  O   UNL     1       8.748 -11.169  -0.514  1.00  0.00    -0.258 OA
ATOM     18  O   UNL     1       8.861  -9.085  -1.197  1.00  0.00    -0.258 OA
ENDBRANCH   4  16
BRANCH   5  19
ATOM     19  O   UNL     1       3.855 -12.156  -1.451  1.00  0.00    -0.504 OA
ATOM     20  H   UNL     1       3.626 -12.162  -2.395  1.00  0.00     0.293 HD
ENDBRANCH   5  19
BRANCH   6  21
ATOM     21  O   UNL     1       6.609 -12.348  -1.434  1.00  0.00    -0.500 OA
ATOM     22  H   UNL     1       6.193 -12.752  -2.211  1.00  0.00     0.294 HD
ENDBRANCH   6  21
TORSDOF 5
ENDMDL
MODEL 7
REMARK VINA RESULT:    -4.579      2.396      4.138
REMARK INTER + INTRA:          -6.434
REMARK INTER:                  -5.452
REMARK INTRA:                  -0.982
REMARK UNBOUND:                -0.785
REMARK SMILES Cc1ccc(C(=O)c2cc(O)c(O)c([N+](=O)[O-])c2)cc1
REMARK SMILES IDX 8 1 18 2 9 3 14 4 10 5 12 6 6 7 7 8 5 9 4 10 19 11 3 12
REMARK SMILES IDX 20 13 2 14 1 15 15 16 17 17 16 18 11 19 13 21
REMARK H PARENT 11 20 13 22
ROOT
ATOM      1  C   UNL     1       5.509  -8.361  -2.276  1.00  0.00     0.033 A 
ATOM      2  C   UNL     1       4.703  -7.419  -1.678  1.00  0.00     0.102 A 
ATOM      3  C   UNL     1       5.970  -8.238  -3.565  1.00  0.00     0.063 A 
ATOM      4  C   UNL     1       4.340  -6.290  -2.411  1.00  0.00     0.315 A 
ATOM      5  C   UNL     1       5.605  -7.109  -4.299  1.00  0.00     0.165 A 
ATOM      6  C   UNL     1       4.790  -6.134  -3.722  1.00  0.00     0.237 A 
ENDROOT
BRANCH   1   7
ATOM      7  C   UNL     1       5.899  -9.570  -1.490  1.00  0.00     0.193 C 
ATOM      8  O   UNL     1       5.037 -10.448  -1.332  1.00  0.00    -0.289 OA
BRANCH   7   9
ATOM      9  C   UNL     1       7.227  -9.737  -0.923  1.00  0.00     0.023 A 
ATOM     10  C   UNL     1       7.955 -10.899  -1.181  1.00  0.00     0.012 A 
ATOM     11  C   UNL     1       7.774  -8.735  -0.122  1.00  0.00     0.012 A 
ATOM     12  C   UNL     1       9.229 -11.058  -0.637  1.00  0.00     0.004 A 
ATOM     13  C   UNL     1       9.050  -8.894   0.422  1.00  0.00     0.004 A 
ATOM     14  C   UNL     1       9.777 -10.056   0.164  1.00  0.00    -0.051 A 
ATOM     15  C   UNL     1      11.139 -10.228   0.746  1.00  0.00     0.044 C 
ENDBRANCH   7   9
ENDBRANCH   1   7
BRANCH   4  16
ATOM     16  N   UNL     1       3.508  -5.308  -1.807  1.00  0.00     0.066 N 
ATOM     17  O   UNL     1       3.745  -4.957  -0.626  1.00  0.00    -0.258 OA
ATOM     18  O   UNL     1       2.563  -4.822  -2.471  1.00  0.00    -0.258 OA
ENDBRANCH   4  16
BRANCH   5  19
ATOM     19  O   UNL     1       6.054  -6.970  -5.578  1.00  0.00    -0.504 OA
ATOM     20  H   UNL     1       6.494  -6.110  -5.677  1.00  0.00     0.293 HD
ENDBRANCH   5  19
BRANCH   6  21
ATOM     21  O   UNL     1       4.441  -5.034  -4.450  1.00  0.00    -0.500 OA
ATOM     22  H   UNL     1       4.083  -4.353  -3.860  1.00  0.00     0.294 HD
ENDBRANCH   6  21
TORSDOF 5
ENDMDL
MODEL 8
REMARK VINA RESULT:    -4.573      3.604      4.496
REMARK INTER + INTRA:          -6.428
REMARK INTER:                  -5.434
REMARK INTRA:                  -0.994
REMARK UNBOUND:                -0.785
REMARK SMILES Cc1ccc(C(=O)c2cc(O)c(O)c([N+](=O)[O-])c2)cc1
REMARK SMILES IDX 8 1 18 2 9 3 14 4 10 5 12 6 6 7 7 8 5 9 4 10 19 11 3 12
REMARK SMILES IDX 20 13 2 14 1 15 15 16 17 17 16 18 11 19 13 21
REMARK H PARENT 11 20 13 22
ROOT
ATOM      1  C   UNL     1       4.663  -8.656  -0.381  1.00  0.00     0.033 A 
ATOM      2  C   UNL     1       4.444  -7.534  -1.146  1.00  0.00     0.102 A 
ATOM      3  C   UNL     1       4.207  -8.780   0.910  1.00  0.00     0.063 A 
ATOM      4  C   UNL     1       3.727  -6.476  -0.587  1.00  0.00     0.315 A 
ATOM      5  C   UNL     1       3.490  -7.722   1.469  1.00  0.00     0.165 A 
ATOM      6  C   UNL     1       3.250  -6.569   0.720  1.00  0.00     0.237 A 
ENDROOT
BRANCH   1   7
ATOM      7  C   UNL     1       5.431  -9.790  -0.979  1.00  0.00     0.193 C 
ATOM      8  O   UNL     1       6.660  -9.654  -1.078  1.00  0.00    -0.289 OA
BRANCH   7   9
ATOM      9  C   UNL     1       4.789 -11.013  -1.433  1.00  0.00     0.023 A 
ATOM     10  C   UNL     1       5.241 -12.250  -0.975  1.00  0.00     0.012 A 
ATOM     11  C   UNL     1       3.721 -10.949  -2.328  1.00  0.00     0.012 A 
ATOM     12  C   UNL     1       4.625 -13.423  -1.411  1.00  0.00     0.004 A 
ATOM     13  C   UNL     1       3.104 -12.122  -2.764  1.00  0.00     0.004 A 
ATOM     14  C   UNL     1       3.556 -13.359  -2.306  1.00  0.00    -0.051 A 
ATOM     15  C   UNL     1       2.899 -14.613  -2.772  1.00  0.00     0.044 C 
ENDBRANCH   7   9
ENDBRANCH   1   7
BRANCH   4  16
ATOM     16  N   UNL     1       3.492  -5.310  -1.366  1.00  0.00     0.066 N 
ATOM     17  O   UNL     1       3.505  -4.190  -0.799  1.00  0.00    -0.258 OA
ATOM     18  O   UNL     1       3.280  -5.434  -2.595  1.00  0.00    -0.258 OA
ENDBRANCH   4  16
BRANCH   5  19
ATOM     19  O   UNL     1       3.030  -7.827   2.747  1.00  0.00    -0.504 OA
ATOM     20  H   UNL     1       3.174  -6.988   3.215  1.00  0.00     0.293 HD
ENDBRANCH   5  19
BRANCH   6  21
ATOM     21  O   UNL     1       2.547  -5.541   1.277  1.00  0.00    -0.500 OA
ATOM     22  H   UNL     1       1.596  -5.695   1.161  1.00  0.00     0.294 HD
ENDBRANCH   6  21
TORSDOF 5
ENDMDL
MODEL 9
REMARK VINA RESULT:    -4.494      3.780      6.952
REMARK INTER + INTRA:          -6.330
REMARK INTER:                  -5.343
REMARK INTRA:                  -0.987
REMARK UNBOUND:                -0.785
REMARK SMILES Cc1ccc(C(=O)c2cc(O)c(O)c([N+](=O)[O-])c2)cc1
REMARK SMILES IDX 8 1 18 2 9 3 14 4 10 5 12 6 6 7 7 8 5 9 4 10 19 11 3 12
REMARK SMILES IDX 20 13 2 14 1 15 15 16 17 17 16 18 11 19 13 21
REMARK H PARENT 11 20 13 22
ROOT
ATOM      1  C   UNL     1       5.340  -8.738  -1.883  1.00  0.00     0.033 A 
ATOM      2  C   UNL     1       6.630  -8.942  -1.448  1.00  0.00     0.102 A 
ATOM      3  C   UNL     1       4.415  -9.750  -1.975  1.00  0.00     0.063 A 
ATOM      4  C   UNL     1       7.014 -10.232  -1.084  1.00  0.00     0.315 A 
ATOM      5  C   UNL     1       4.799 -11.041  -1.612  1.00  0.00     0.165 A 
ATOM      6  C   UNL     1       6.099 -11.282  -1.165  1.00  0.00     0.237 A 
ENDROOT
BRANCH   1   7
ATOM      7  C   UNL     1       4.929  -7.356  -2.274  1.00  0.00     0.193 C 
ATOM      8  O   UNL     1       5.610  -6.781  -3.136  1.00  0.00    -0.289 OA
BRANCH   7   9
ATOM      9  C   UNL     1       3.780  -6.688  -1.683  1.00  0.00     0.023 A 
ATOM     10  C   UNL     1       2.758  -6.204  -2.500  1.00  0.00     0.012 A 
ATOM     11  C   UNL     1       3.699  -6.533  -0.299  1.00  0.00     0.012 A 
ATOM     12  C   UNL     1       1.656  -5.564  -1.933  1.00  0.00     0.004 A 
ATOM     13  C   UNL     1       2.596  -5.892   0.268  1.00  0.00     0.004 A 
ATOM     14  C   UNL     1       1.575  -5.408  -0.549  1.00  0.00    -0.051 A 
ATOM     15  C   UNL     1       0.397  -4.723   0.056  1.00  0.00     0.044 C 
ENDBRANCH   7   9
ENDBRANCH   1   7
BRANCH   4  16
ATOM     16  N   UNL     1       8.343 -10.459  -0.632  1.00  0.00     0.066 N 
ATOM     17  O   UNL     1       8.964  -9.519  -0.080  1.00  0.00    -0.258 OA
ATOM     18  O   UNL     1       8.854 -11.591  -0.797  1.00  0.00    -0.258 OA
ENDBRANCH   4  16
BRANCH   5  19
ATOM     19  O   UNL     1       3.894 -12.056  -1.696  1.00  0.00    -0.504 OA
ATOM     20  H   UNL     1       4.300 -12.817  -2.144  1.00  0.00     0.293 HD
ENDBRANCH   5  19
BRANCH   6  21
ATOM     21  O   UNL     1       6.463 -12.549  -0.811  1.00  0.00    -0.500 OA
ATOM     22  H   UNL     1       5.755 -13.169  -1.045  1.00  0.00     0.294 HD
ENDBRANCH   6  21
TORSDOF 5
ENDMDL
