MODEL 1
REMARK VINA RESULT:    -5.157      0.000      0.000
REMARK INTER + INTRA:          -7.135
REMARK INTER:                  -6.363
REMARK INTRA:                  -0.772
REMARK UNBOUND:                -0.772
REMARK SMILES Cc1ccc(C(=O)c2cc(O)c(O)c([N+](=O)[O-])c2)cc1
REMARK SMILES IDX 8 1 18 2 9 3 14 4 10 5 12 6 6 7 7 8 5 9 4 10 19 11 3 12
REMARK SMILES IDX 20 13 2 14 1 15 15 16 17 17 16 18 11 19 13 21
REMARK H PARENT 11 20 13 22
ROOT
ATOM      1  C   UNL     1      -6.017  -0.870  -0.737  1.00  0.00     0.033 A 
ATOM      2  C   UNL     1      -4.973  -1.712  -1.045  1.00  0.00     0.102 A 
ATOM      3  C   UNL     1      -5.865   0.255   0.039  1.00  0.00     0.063 A 
ATOM      4  C   UNL     1      -3.705  -1.410  -0.548  1.00  0.00     0.315 A 
ATOM      5  C   UNL     1      -4.597   0.555   0.536  1.00  0.00     0.165 A 
ATOM      6  C   UNL     1      -3.516  -0.277   0.242  1.00  0.00     0.237 A 
ENDROOT
BRANCH   1   7
ATOM      7  C   UNL     1      -7.376  -1.192  -1.269  1.00  0.00     0.193 C 
ATOM      8  O   UNL     1      -8.114  -0.239  -1.559  1.00  0.00    -0.289 OA
BRANCH   7   9
ATOM      9  C   UNL     1      -7.838  -2.559  -1.450  1.00  0.00     0.023 A 
ATOM     10  C   UNL     1      -8.593  -3.177  -0.453  1.00  0.00     0.012 A 
ATOM     11  C   UNL     1      -7.528  -3.251  -2.620  1.00  0.00     0.012 A 
ATOM     12  C   UNL     1      -9.036  -4.488  -0.627  1.00  0.00     0.004 A 
ATOM     13  C   UNL     1      -7.971  -4.563  -2.795  1.00  0.00     0.004 A 
ATOM     14  C   UNL     1      -8.726  -5.181  -1.798  1.00  0.00    -0.051 A 
ATOM     15  C   UNL     1      -9.199  -6.583  -1.982  1.00  0.00     0.044 C 
ENDBRANCH   7   9
ENDBRANCH   1   7
BRANCH   4  16
ATOM     16  N   UNL     1      -2.616  -2.271  -0.858  1.00  0.00     0.066 N 
ATOM     17  O   UNL     1      -2.624  -2.888  -1.951  1.00  0.00    -0.258 OA
ATOM     18  O   UNL     1      -1.681  -2.387  -0.032  1.00  0.00    -0.258 OA
ENDBRANCH   4  16
BRANCH   5  19
ATOM     19  O   UNL     1      -4.427   1.666   1.307  1.00  0.00    -0.504 OA
ATOM     20  H   UNL     1      -4.522   2.461   0.757  1.00  0.00     0.293 HD
ENDBRANCH   5  19
BRANCH   6  21
ATOM     21  O   UNL     1      -2.280   0.028   0.734  1.00  0.00    -0.500 OA
ATOM     22  H   UNL     1      -2.260  -0.136   1.689  1.00  0.00     0.294 HD
ENDBRANCH   6  21
TORSDOF 5
ENDMDL
MODEL 2
REMARK VINA RESULT:    -5.138      2.044      3.565
REMARK INTER + INTRA:          -7.111
REMARK INTER:                  -6.342
REMARK INTRA:                  -0.770
REMARK UNBOUND:                -0.772
REMARK SMILES Cc1ccc(C(=O)c2cc(O)c(O)c([N+](=O)[O-])c2)cc1
REMARK SMILES IDX 8 1 18 2 9 3 14 4 10 5 12 6 6 7 7 8 5 9 4 10 19 11 3 12
REMARK SMILES IDX 20 13 2 14 1 15 15 16 17 17 16 18 11 19 13 21
REMARK H PARENT 11 20 13 22
ROOT
ATOM      1  C   UNL     1      -5.373  -2.479  -0.216  1.00  0.00     0.033 A 
ATOM      2  C   UNL     1      -5.730  -1.303   0.401  1.00  0.00     0.102 A 
ATOM      3  C   UNL     1      -4.071  -2.797  -0.519  1.00  0.00     0.063 A 
ATOM      4  C   UNL     1      -4.727  -0.393   0.735  1.00  0.00     0.315 A 
ATOM      5  C   UNL     1      -3.067  -1.887  -0.186  1.00  0.00     0.165 A 
ATOM      6  C   UNL     1      -3.395  -0.685   0.442  1.00  0.00     0.237 A 
ENDROOT
BRANCH   1   7
ATOM      7  C   UNL     1      -6.448  -3.453  -0.574  1.00  0.00     0.193 C 
ATOM      8  O   UNL     1      -6.185  -4.659  -0.456  1.00  0.00    -0.289 OA
BRANCH   7   9
ATOM      9  C   UNL     1      -7.758  -3.031  -1.043  1.00  0.00     0.023 A 
ATOM     10  C   UNL     1      -8.015  -2.946  -2.411  1.00  0.00     0.012 A 
ATOM     11  C   UNL     1      -8.758  -2.712  -0.125  1.00  0.00     0.012 A 
ATOM     12  C   UNL     1      -9.272  -2.542  -2.861  1.00  0.00     0.004 A 
ATOM     13  C   UNL     1     -10.016  -2.307  -0.574  1.00  0.00     0.004 A 
ATOM     14  C   UNL     1     -10.273  -2.222  -1.942  1.00  0.00    -0.051 A 
ATOM     15  C   UNL     1     -11.615  -1.789  -2.424  1.00  0.00     0.044 C 
ENDBRANCH   7   9
ENDBRANCH   1   7
BRANCH   4  16
ATOM     16  N   UNL     1      -5.081   0.827   1.374  1.00  0.00     0.066 N 
ATOM     17  O   UNL     1      -5.968   0.811   2.261  1.00  0.00    -0.258 OA
ATOM     18  O   UNL     1      -4.496   1.881   1.033  1.00  0.00    -0.258 OA
ENDBRANCH   4  16
BRANCH   5  19
ATOM     19  O   UNL     1      -1.770  -2.186  -0.478  1.00  0.00    -0.504 OA
ATOM     20  H   UNL     1      -1.740  -2.941  -1.088  1.00  0.00     0.293 HD
ENDBRANCH   5  19
BRANCH   6  21
ATOM     21  O   UNL     1      -2.404   0.197   0.764  1.00  0.00    -0.500 OA
ATOM     22  H   UNL     1      -1.551  -0.145   0.454  1.00  0.00     0.294 HD
ENDBRANCH   6  21
TORSDOF 5
ENDMDL
MODEL 3
REMARK VINA RESULT:    -4.287      1.829      2.368
REMARK INTER + INTRA:          -6.061
REMARK INTER:                  -5.399
REMARK INTRA:                  -0.662
REMARK UNBOUND:                -0.772
REMARK SMILES Cc1ccc(C(=O)c2cc(O)c(O)c([N+](=O)[O-])c2)cc1
REMARK SMILES IDX 8 1 18 2 9 3 14 4 10 5 12 6 6 7 7 8 5 9 4 10 19 11 3 12
REMARK SMILES IDX 20 13 2 14 1 15 15 16 17 17 16 18 11 19 13 21
REMARK H PARENT 11 20 13 22
ROOT
ATOM      1  C   UNL     1      -5.623  -1.393   0.906  1.00  0.00     0.033 A 
ATOM      2  C   UNL     1      -4.585  -2.121   0.374  1.00  0.00     0.102 A 
ATOM      3  C   UNL     1      -5.532  -0.047   1.169  1.00  0.00     0.063 A 
ATOM      4  C   UNL     1      -3.388  -1.465   0.086  1.00  0.00     0.315 A 
ATOM      5  C   UNL     1      -4.334   0.610   0.883  1.00  0.00     0.165 A 
ATOM      6  C   UNL     1      -3.262  -0.100   0.341  1.00  0.00     0.237 A 
ENDROOT
BRANCH   1   7
ATOM      7  C   UNL     1      -6.905  -2.095   1.214  1.00  0.00     0.193 C 
ATOM      8  O   UNL     1      -7.067  -2.502   2.375  1.00  0.00    -0.289 OA
BRANCH   7   9
ATOM      9  C   UNL     1      -7.938  -2.307   0.213  1.00  0.00     0.023 A 
ATOM     10  C   UNL     1      -7.584  -2.536  -1.117  1.00  0.00     0.012 A 
ATOM     11  C   UNL     1      -9.283  -2.281   0.582  1.00  0.00     0.012 A 
ATOM     12  C   UNL     1      -8.575  -2.740  -2.077  1.00  0.00     0.004 A 
ATOM     13  C   UNL     1     -10.274  -2.484  -0.379  1.00  0.00     0.004 A 
ATOM     14  C   UNL     1      -9.920  -2.714  -1.708  1.00  0.00    -0.051 A 
ATOM     15  C   UNL     1     -10.979  -2.930  -2.735  1.00  0.00     0.044 C 
ENDBRANCH   7   9
ENDBRANCH   1   7
BRANCH   4  16
ATOM     16  N   UNL     1      -2.306  -2.205  -0.465  1.00  0.00     0.066 N 
ATOM     17  O   UNL     1      -1.239  -2.297   0.188  1.00  0.00    -0.258 OA
ATOM     18  O   UNL     1      -2.450  -2.744  -1.587  1.00  0.00    -0.258 OA
ENDBRANCH   4  16
BRANCH   5  19
ATOM     19  O   UNL     1      -4.226   1.944   1.137  1.00  0.00    -0.504 OA
ATOM     20  H   UNL     1      -4.513   2.448   0.357  1.00  0.00     0.293 HD
ENDBRANCH   5  19
BRANCH   6  21
ATOM     21  O   UNL     1      -2.096   0.553   0.064  1.00  0.00    -0.500 OA
ATOM     22  H   UNL     1      -2.288   1.372  -0.418  1.00  0.00     0.294 HD
ENDBRANCH   6  21
TORSDOF 5
ENDMDL
MODEL 4
REMARK VINA RESULT:    -4.277      1.628      3.098
REMARK INTER + INTRA:          -6.049
REMARK INTER:                  -5.286
REMARK INTRA:                  -0.763
REMARK UNBOUND:                -0.772
REMARK SMILES Cc1ccc(C(=O)c2cc(O)c(O)c([N+](=O)[O-])c2)cc1
REMARK SMILES IDX 8 1 18 2 9 3 14 4 10 5 12 6 6 7 7 8 5 9 4 10 19 11 3 12
REMARK SMILES IDX 20 13 2 14 1 15 15 16 17 17 16 18 11 19 13 21
REMARK H PARENT 11 20 13 22
ROOT
ATOM      1  C   UNL     1      -4.773  -1.362  -1.541  1.00  0.00     0.033 A 
ATOM      2  C   UNL     1      -5.168  -0.249  -0.835  1.00  0.00     0.102 A 
ATOM      3  C   UNL     1      -3.601  -2.033  -1.283  1.00  0.00     0.063 A 
ATOM      4  C   UNL     1      -4.342   0.219   0.187  1.00  0.00     0.315 A 
ATOM      5  C   UNL     1      -2.775  -1.564  -0.261  1.00  0.00     0.165 A 
ATOM      6  C   UNL     1      -3.146  -0.438   0.475  1.00  0.00     0.237 A 
ENDROOT
BRANCH   1   7
ATOM      7  C   UNL     1      -5.657  -1.864  -2.636  1.00  0.00     0.193 C 
ATOM      8  O   UNL     1      -5.429  -1.454  -3.784  1.00  0.00    -0.289 OA
BRANCH   7   9
ATOM      9  C   UNL     1      -6.747  -2.796  -2.393  1.00  0.00     0.023 A 
ATOM     10  C   UNL     1      -7.061  -3.765  -3.346  1.00  0.00     0.012 A 
ATOM     11  C   UNL     1      -7.478  -2.721  -1.208  1.00  0.00     0.012 A 
ATOM     12  C   UNL     1      -8.106  -4.659  -3.113  1.00  0.00     0.004 A 
ATOM     13  C   UNL     1      -8.523  -3.615  -0.974  1.00  0.00     0.004 A 
ATOM     14  C   UNL     1      -8.838  -4.584  -1.927  1.00  0.00    -0.051 A 
ATOM     15  C   UNL     1      -9.955  -5.539  -1.679  1.00  0.00     0.044 C 
ENDBRANCH   7   9
ENDBRANCH   1   7
BRANCH   4  16
ATOM     16  N   UNL     1      -4.737   1.369   0.926  1.00  0.00     0.066 N 
ATOM     17  O   UNL     1      -5.899   1.417   1.397  1.00  0.00    -0.258 OA
ATOM     18  O   UNL     1      -3.912   2.299   1.085  1.00  0.00    -0.258 OA
ENDBRANCH   4  16
BRANCH   5  19
ATOM     19  O   UNL     1      -1.610  -2.216   0.009  1.00  0.00    -0.504 OA
ATOM     20  H   UNL     1      -0.864  -1.600  -0.082  1.00  0.00     0.293 HD
ENDBRANCH   5  19
BRANCH   6  21
ATOM     21  O   UNL     1      -2.330   0.011   1.472  1.00  0.00    -0.500 OA
ATOM     22  H   UNL     1      -2.655   0.864   1.801  1.00  0.00     0.294 HD
ENDBRANCH   6  21
TORSDOF 5
ENDMDL
MODEL 5
REMARK VINA RESULT:    -4.165      1.982      2.336
REMARK INTER + INTRA:          -5.911
REMARK INTER:                  -5.221
REMARK INTRA:                  -0.690
REMARK UNBOUND:                -0.772
REMARK SMILES Cc1ccc(C(=O)c2cc(O)c(O)c([N+](=O)[O-])c2)cc1
REMARK SMILES IDX 8 1 18 2 9 3 14 4 10 5 12 6 6 7 7 8 5 9 4 10 19 11 3 12
REMARK SMILES IDX 20 13 2 14 1 15 15 16 17 17 16 18 11 19 13 21
REMARK H PARENT 11 20 13 22
ROOT
ATOM      1  C   UNL     1      -5.950  -2.507  -0.377  1.00  0.00     0.033 A 
ATOM      2  C   UNL     1      -4.667  -2.771  -0.798  1.00  0.00     0.102 A 
ATOM      3  C   UNL     1      -6.266  -1.435   0.425  1.00  0.00     0.063 A 
ATOM      4  C   UNL     1      -3.643  -1.914  -0.397  1.00  0.00     0.315 A 
ATOM      5  C   UNL     1      -5.241  -0.578   0.827  1.00  0.00     0.165 A 
ATOM      6  C   UNL     1      -3.929  -0.817   0.416  1.00  0.00     0.237 A 
ENDROOT
BRANCH   1   7
ATOM      7  C   UNL     1      -7.047  -3.425  -0.807  1.00  0.00     0.193 C 
ATOM      8  O   UNL     1      -6.829  -4.644  -0.736  1.00  0.00    -0.289 OA
BRANCH   7   9
ATOM      9  C   UNL     1      -8.328  -2.936  -1.292  1.00  0.00     0.023 A 
ATOM     10  C   UNL     1      -9.333  -2.596  -0.387  1.00  0.00     0.012 A 
ATOM     11  C   UNL     1      -8.551  -2.806  -2.663  1.00  0.00     0.012 A 
ATOM     12  C   UNL     1     -10.561  -2.127  -0.853  1.00  0.00     0.004 A 
ATOM     13  C   UNL     1      -9.779  -2.336  -3.129  1.00  0.00     0.004 A 
ATOM     14  C   UNL     1     -10.785  -1.997  -2.224  1.00  0.00    -0.051 A 
ATOM     15  C   UNL     1     -12.098  -1.496  -2.721  1.00  0.00     0.044 C 
ENDBRANCH   7   9
ENDBRANCH   1   7
BRANCH   4  16
ATOM     16  N   UNL     1      -2.312  -2.174  -0.825  1.00  0.00     0.066 N 
ATOM     17  O   UNL     1      -2.069  -2.216  -2.055  1.00  0.00    -0.258 OA
ATOM     18  O   UNL     1      -1.422  -2.352   0.038  1.00  0.00    -0.258 OA
ENDBRANCH   4  16
BRANCH   5  19
ATOM     19  O   UNL     1      -5.536   0.489   1.621  1.00  0.00    -0.504 OA
ATOM     20  H   UNL     1      -6.490   0.669   1.583  1.00  0.00     0.293 HD
ENDBRANCH   5  19
BRANCH   6  21
ATOM     21  O   UNL     1      -2.936   0.029   0.816  1.00  0.00    -0.500 OA
ATOM     22  H   UNL     1      -3.006   0.866   0.332  1.00  0.00     0.294 HD
ENDBRANCH   6  21
TORSDOF 5
ENDMDL
MODEL 6
REMARK VINA RESULT:    -4.156      1.284      2.922
REMARK INTER + INTRA:          -5.900
REMARK INTER:                  -5.208
REMARK INTRA:                  -0.693
REMARK UNBOUND:                -0.772
REMARK SMILES Cc1ccc(C(=O)c2cc(O)c(O)c([N+](=O)[O-])c2)cc1
REMARK SMILES IDX 8 1 18 2 9 3 14 4 10 5 12 6 6 7 7 8 5 9 4 10 19 11 3 12
REMARK SMILES IDX 20 13 2 14 1 15 15 16 17 17 16 18 11 19 13 21
REMARK H PARENT 11 20 13 22
ROOT
ATOM      1  C   UNL     1      -6.389  -1.319  -0.931  1.00  0.00     0.033 A 
ATOM      2  C   UNL     1      -6.286  -0.310  -0.001  1.00  0.00     0.102 A 
ATOM      3  C   UNL     1      -5.295  -1.969  -1.450  1.00  0.00     0.063 A 
ATOM      4  C   UNL     1      -5.017   0.069   0.434  1.00  0.00     0.315 A 
ATOM      5  C   UNL     1      -4.025  -1.590  -1.015  1.00  0.00     0.165 A 
ATOM      6  C   UNL     1      -3.885  -0.570  -0.072  1.00  0.00     0.237 A 
ENDROOT
BRANCH   1   7
ATOM      7  C   UNL     1      -7.749  -1.725  -1.397  1.00  0.00     0.193 C 
ATOM      8  O   UNL     1      -8.548  -0.819  -1.679  1.00  0.00    -0.289 OA
BRANCH   7   9
ATOM      9  C   UNL     1      -8.145  -3.118  -1.525  1.00  0.00     0.023 A 
ATOM     10  C   UNL     1      -7.832  -3.829  -2.684  1.00  0.00     0.012 A 
ATOM     11  C   UNL     1      -8.839  -3.744  -0.489  1.00  0.00     0.012 A 
ATOM     12  C   UNL     1      -8.213  -5.165  -2.806  1.00  0.00     0.004 A 
ATOM     13  C   UNL     1      -9.219  -5.081  -0.611  1.00  0.00     0.004 A 
ATOM     14  C   UNL     1      -8.906  -5.792  -1.769  1.00  0.00    -0.051 A 
ATOM     15  C   UNL     1      -9.314  -7.220  -1.901  1.00  0.00     0.044 C 
ENDBRANCH   7   9
ENDBRANCH   1   7
BRANCH   4  16
ATOM     16  N   UNL     1      -4.895   1.110   1.395  1.00  0.00     0.066 N 
ATOM     17  O   UNL     1      -5.465   0.981   2.505  1.00  0.00    -0.258 OA
ATOM     18  O   UNL     1      -4.220   2.126   1.106  1.00  0.00    -0.258 OA
ENDBRANCH   4  16
BRANCH   5  19
ATOM     19  O   UNL     1      -2.928  -2.224  -1.519  1.00  0.00    -0.504 OA
ATOM     20  H   UNL     1      -2.124  -1.835  -1.137  1.00  0.00     0.293 HD
ENDBRANCH   5  19
BRANCH   6  21
ATOM     21  O   UNL     1      -2.638  -0.208   0.346  1.00  0.00    -0.500 OA
ATOM     22  H   UNL     1      -2.633   0.733   0.580  1.00  0.00     0.294 HD
ENDBRANCH   6  21
TORSDOF 5
ENDMDL
MODEL 7
REMARK VINA RESULT:    -4.044      3.624      4.519
REMARK INTER + INTRA:          -5.762
REMARK INTER:                  -4.780
REMARK INTRA:                  -0.982
REMARK UNBOUND:                -0.772
REMARK SMILES Cc1ccc(C(=O)c2cc(O)c(O)c([N+](=O)[O-])c2)cc1
REMARK SMILES IDX 8 1 18 2 9 3 14 4 10 5 12 6 6 7 7 8 5 9 4 10 19 11 3 12
REMARK SMILES IDX 20 13 2 14 1 15 15 16 17 17 16 18 11 19 13 21
REMARK H PARENT 11 20 13 22
ROOT
ATOM      1  C   UNL     1      -8.838  -2.835  -0.664  1.00  0.00     0.033 A 
ATOM      2  C   UNL     1      -7.580  -2.415  -1.030  1.00  0.00     0.102 A 
ATOM      3  C   UNL     1      -9.320  -2.717   0.618  1.00  0.00     0.063 A 
ATOM      4  C   UNL     1      -6.758  -1.844  -0.058  1.00  0.00     0.315 A 
ATOM      5  C   UNL     1      -8.499  -2.147   1.590  1.00  0.00     0.165 A 
ATOM      6  C   UNL     1      -7.217  -1.710   1.252  1.00  0.00     0.237 A 
ENDROOT
BRANCH   1   7
ATOM      7  C   UNL     1      -9.718  -3.446  -1.705  1.00  0.00     0.193 C 
ATOM      8  O   UNL     1      -9.497  -4.627  -2.014  1.00  0.00    -0.289 OA
BRANCH   7   9
ATOM      9  C   UNL     1     -10.796  -2.710  -2.345  1.00  0.00     0.023 A 
ATOM     10  C   UNL     1     -12.095  -3.219  -2.326  1.00  0.00     0.012 A 
ATOM     11  C   UNL     1     -10.532  -1.496  -2.978  1.00  0.00     0.012 A 
ATOM     12  C   UNL     1     -13.129  -2.512  -2.940  1.00  0.00     0.004 A 
ATOM     13  C   UNL     1     -11.566  -0.789  -3.592  1.00  0.00     0.004 A 
ATOM     14  C   UNL     1     -12.865  -1.297  -3.573  1.00  0.00    -0.051 A 
ATOM     15  C   UNL     1     -13.971  -0.543  -4.230  1.00  0.00     0.044 C 
ENDBRANCH   7   9
ENDBRANCH   1   7
BRANCH   4  16
ATOM     16  N   UNL     1      -5.456  -1.405  -0.421  1.00  0.00     0.066 N 
ATOM     17  O   UNL     1      -4.534  -1.477   0.427  1.00  0.00    -0.258 OA
ATOM     18  O   UNL     1      -5.267  -0.960  -1.577  1.00  0.00    -0.258 OA
ENDBRANCH   4  16
BRANCH   5  19
ATOM     19  O   UNL     1      -8.960  -2.022   2.866  1.00  0.00    -0.504 OA
ATOM     20  H   UNL     1      -8.319  -1.521   3.397  1.00  0.00     0.293 HD
ENDBRANCH   5  19
BRANCH   6  21
ATOM     21  O   UNL     1      -6.423  -1.153   2.212  1.00  0.00    -0.500 OA
ATOM     22  H   UNL     1      -6.811  -1.309   3.087  1.00  0.00     0.294 HD
ENDBRANCH   6  21
TORSDOF 5
ENDMDL
MODEL 8
REMARK VINA RESULT:    -4.030      3.516      7.125
REMARK INTER + INTRA:          -5.744
REMARK INTER:                  -4.791
REMARK INTRA:                  -0.953
REMARK UNBOUND:                -0.772
REMARK SMILES Cc1ccc(C(=O)c2cc(O)c(O)c([N+](=O)[O-])c2)cc1
REMARK SMILES IDX 8 1 18 2 9 3 14 4 10 5 12 6 6 7 7 8 5 9 4 10 19 11 3 12
REMARK SMILES IDX 20 13 2 14 1 15 15 16 17 17 16 18 11 19 13 21
REMARK H PARENT 11 20 13 22
ROOT
ATOM      1  C   UNL     1      -8.129  -3.279  -2.135  1.00  0.00     0.033 A 
ATOM      2  C   UNL     1      -9.223  -2.453  -2.245  1.00  0.00     0.102 A 
ATOM      3  C   UNL     1      -8.226  -4.651  -2.135  1.00  0.00     0.063 A 
ATOM      4  C   UNL     1     -10.486  -3.031  -2.363  1.00  0.00     0.315 A 
ATOM      5  C   UNL     1      -9.491  -5.229  -2.252  1.00  0.00     0.165 A 
ATOM      6  C   UNL     1     -10.621  -4.419  -2.367  1.00  0.00     0.237 A 
ENDROOT
BRANCH   1   7
ATOM      7  C   UNL     1      -6.775  -2.660  -2.009  1.00  0.00     0.193 C 
ATOM      8  O   UNL     1      -5.907  -3.021  -2.818  1.00  0.00    -0.289 OA
BRANCH   7   9
ATOM      9  C   UNL     1      -6.461  -1.673  -0.989  1.00  0.00     0.023 A 
ATOM     10  C   UNL     1      -6.798  -1.914   0.343  1.00  0.00     0.012 A 
ATOM     11  C   UNL     1      -5.823  -0.484  -1.341  1.00  0.00     0.012 A 
ATOM     12  C   UNL     1      -6.497  -0.967   1.322  1.00  0.00     0.004 A 
ATOM     13  C   UNL     1      -5.521   0.464  -0.363  1.00  0.00     0.004 A 
ATOM     14  C   UNL     1      -5.858   0.222   0.969  1.00  0.00    -0.051 A 
ATOM     15  C   UNL     1      -5.538   1.235   2.015  1.00  0.00     0.044 C 
ENDBRANCH   7   9
ENDBRANCH   1   7
BRANCH   4  16
ATOM     16  N   UNL     1     -11.626  -2.189  -2.479  1.00  0.00     0.066 N 
ATOM     17  O   UNL     1     -12.616  -2.595  -3.134  1.00  0.00    -0.258 OA
ATOM     18  O   UNL     1     -11.610  -1.067  -1.921  1.00  0.00    -0.258 OA
ENDBRANCH   4  16
BRANCH   5  19
ATOM     19  O   UNL     1      -9.607  -6.587  -2.254  1.00  0.00    -0.504 OA
ATOM     20  H   UNL     1      -8.981  -6.968  -1.616  1.00  0.00     0.293 HD
ENDBRANCH   5  19
BRANCH   6  21
ATOM     21  O   UNL     1     -11.852  -4.997  -2.481  1.00  0.00    -0.500 OA
ATOM     22  H   UNL     1     -12.015  -5.237  -3.407  1.00  0.00     0.294 HD
ENDBRANCH   6  21
TORSDOF 5
ENDMDL
MODEL 9
REMARK VINA RESULT:    -4.029      2.374      4.069
REMARK INTER + INTRA:          -5.743
REMARK INTER:                  -4.752
REMARK INTRA:                  -0.992
REMARK UNBOUND:                -0.772
REMARK SMILES Cc1ccc(C(=O)c2cc(O)c(O)c([N+](=O)[O-])c2)cc1
REMARK SMILES IDX 8 1 18 2 9 3 14 4 10 5 12 6 6 7 7 8 5 9 4 10 19 11 3 12
REMARK SMILES IDX 20 13 2 14 1 15 15 16 17 17 16 18 11 19 13 21
REMARK H PARENT 11 20 13 22
ROOT
ATOM      1  C   UNL     1      -7.949  -3.356  -2.281  1.00  0.00     0.033 A 
ATOM      2  C   UNL     1      -7.325  -2.713  -1.237  1.00  0.00     0.102 A 
ATOM      3  C   UNL     1      -7.388  -3.468  -3.531  1.00  0.00     0.063 A 
ATOM      4  C   UNL     1      -6.067  -2.152  -1.456  1.00  0.00     0.315 A 
ATOM      5  C   UNL     1      -6.130  -2.906  -3.750  1.00  0.00     0.165 A 
ATOM      6  C   UNL     1      -5.469  -2.248  -2.712  1.00  0.00     0.237 A 
ENDROOT
BRANCH   1   7
ATOM      7  C   UNL     1      -9.297  -3.958  -2.047  1.00  0.00     0.193 C 
ATOM      8  O   UNL     1     -10.265  -3.184  -2.004  1.00  0.00    -0.289 OA
BRANCH   7   9
ATOM      9  C   UNL     1      -9.493  -5.388  -1.874  1.00  0.00     0.023 A 
ATOM     10  C   UNL     1      -8.784  -6.074  -0.887  1.00  0.00     0.012 A 
ATOM     11  C   UNL     1     -10.389  -6.074  -2.693  1.00  0.00     0.012 A 
ATOM     12  C   UNL     1      -8.973  -7.446  -0.721  1.00  0.00     0.004 A 
ATOM     13  C   UNL     1     -10.578  -7.446  -2.527  1.00  0.00     0.004 A 
ATOM     14  C   UNL     1      -9.869  -8.133  -1.541  1.00  0.00    -0.051 A 
ATOM     15  C   UNL     1     -10.069  -9.599  -1.363  1.00  0.00     0.044 C 
ENDBRANCH   7   9
ENDBRANCH   1   7
BRANCH   4  16
ATOM     16  N   UNL     1      -5.410  -1.484  -0.386  1.00  0.00     0.066 N 
ATOM     17  O   UNL     1      -5.505  -1.957   0.773  1.00  0.00    -0.258 OA
ATOM     18  O   UNL     1      -4.754  -0.445  -0.632  1.00  0.00    -0.258 OA
ENDBRANCH   4  16
BRANCH   5  19
ATOM     19  O   UNL     1      -5.558  -3.008  -4.982  1.00  0.00    -0.504 OA
ATOM     20  H   UNL     1      -5.312  -2.124  -5.301  1.00  0.00     0.293 HD
ENDBRANCH   5  19
BRANCH   6  21
ATOM     21  O   UNL     1      -4.239  -1.702  -2.938  1.00  0.00    -0.500 OA
ATOM     22  H   UNL     1      -4.128  -1.530  -3.886  1.00  0.00     0.294 HD
ENDBRANCH   6  21
TORSDOF 5
ENDMDL
