MODEL 1
REMARK VINA RESULT:    -6.933      0.000      0.000
REMARK INTER + INTRA:          -8.741
REMARK INTER:                  -8.149
REMARK INTRA:                  -0.592
REMARK UNBOUND:                -0.592
REMARK SMILES O=C(O)c1cc(-c2ccc(F)cc2F)ccc1O
REMARK SMILES IDX 6 1 5 2 15 3 4 4 17 5 16 6 7 7 13 8 12 9 8 10 10 11 9 12
REMARK SMILES IDX 14 13 11 14 2 15 1 16 3 17 18 19
REMARK H PARENT 3 18 18 20
ROOT
ATOM      1  C   UNL     1      -5.825  -1.763  -0.496  1.00  0.00    -0.014 A 
ATOM      2  C   UNL     1      -5.912  -0.599   0.267  1.00  0.00     0.028 A 
ATOM      3  C   UNL     1      -4.575  -2.290  -0.823  1.00  0.00     0.013 A 
ATOM      4  C   UNL     1      -4.750   0.038   0.703  1.00  0.00     0.102 A 
ATOM      5  C   UNL     1      -3.501  -0.489   0.376  1.00  0.00     0.130 A 
ATOM      6  C   UNL     1      -3.414  -1.654  -0.388  1.00  0.00     0.048 A 
ENDROOT
BRANCH   1   7
ATOM      7  C   UNL     1      -7.029  -2.424  -0.950  1.00  0.00     0.018 A 
ATOM      8  C   UNL     1      -8.089  -2.634  -0.066  1.00  0.00     0.133 A 
ATOM      9  C   UNL     1      -9.248  -3.272  -0.508  1.00  0.00     0.079 A 
ATOM     10  C   UNL     1      -7.130  -2.851  -2.274  1.00  0.00     0.015 A 
ATOM     11  C   UNL     1      -9.348  -3.699  -1.832  1.00  0.00     0.126 A 
ATOM     12  C   UNL     1      -8.289  -3.488  -2.715  1.00  0.00     0.040 A 
ATOM     13  F   UNL     1      -8.007  -2.232   1.210  1.00  0.00    -0.206 F 
ATOM     14  F   UNL     1     -10.461  -4.311  -2.256  1.00  0.00    -0.207 F 
ENDBRANCH   1   7
BRANCH   4  15
ATOM     15  C   UNL     1      -4.863   1.253   1.499  1.00  0.00     0.339 C 
ATOM     16  O   UNL     1      -4.309   2.325   1.247  1.00  0.00    -0.246 OA
BRANCH  15  17
ATOM     17  O   UNL     1      -5.667   1.088   2.585  1.00  0.00    -0.478 OA
ATOM     18  H   UNL     1      -5.533   0.214   3.008  1.00  0.00     0.297 HD
ENDBRANCH  15  17
ENDBRANCH   4  15
BRANCH   5  19
ATOM     19  O   UNL     1      -2.354   0.118   0.793  1.00  0.00    -0.507 OA
ATOM     20  H   UNL     1      -2.030  -0.331   1.593  1.00  0.00     0.293 HD
ENDBRANCH   5  19
TORSDOF 4
ENDMDL
MODEL 2
REMARK VINA RESULT:    -6.894      1.685      3.175
REMARK INTER + INTRA:          -8.695
REMARK INTER:                  -7.987
REMARK INTRA:                  -0.708
REMARK UNBOUND:                -0.592
REMARK SMILES O=C(O)c1cc(-c2ccc(F)cc2F)ccc1O
REMARK SMILES IDX 6 1 5 2 15 3 4 4 17 5 16 6 7 7 13 8 12 9 8 10 10 11 9 12
REMARK SMILES IDX 14 13 11 14 2 15 1 16 3 17 18 19
REMARK H PARENT 3 18 18 20
ROOT
ATOM      1  C   UNL     1      -5.808  -1.749  -0.607  1.00  0.00    -0.014 A 
ATOM      2  C   UNL     1      -4.587  -2.355  -0.900  1.00  0.00     0.028 A 
ATOM      3  C   UNL     1      -5.838  -0.545   0.097  1.00  0.00     0.013 A 
ATOM      4  C   UNL     1      -3.395  -1.758  -0.489  1.00  0.00     0.102 A 
ATOM      5  C   UNL     1      -3.425  -0.554   0.216  1.00  0.00     0.130 A 
ATOM      6  C   UNL     1      -4.647   0.052   0.509  1.00  0.00     0.048 A 
ENDROOT
BRANCH   1   7
ATOM      7  C   UNL     1      -7.045  -2.368  -1.033  1.00  0.00     0.018 A 
ATOM      8  C   UNL     1      -7.198  -2.793  -2.353  1.00  0.00     0.133 A 
ATOM      9  C   UNL     1      -8.392  -3.389  -2.759  1.00  0.00     0.079 A 
ATOM     10  C   UNL     1      -8.085  -2.541  -0.119  1.00  0.00     0.015 A 
ATOM     11  C   UNL     1      -9.432  -3.561  -1.846  1.00  0.00     0.126 A 
ATOM     12  C   UNL     1      -9.278  -3.137  -0.526  1.00  0.00     0.040 A 
ATOM     13  F   UNL     1      -6.209  -2.632  -3.244  1.00  0.00    -0.206 F 
ATOM     14  F   UNL     1     -10.578  -4.133  -2.234  1.00  0.00    -0.207 F 
ENDBRANCH   1   7
BRANCH   4  15
ATOM     15  C   UNL     1      -2.130  -2.407  -0.805  1.00  0.00     0.339 C 
ATOM     16  O   UNL     1      -1.158  -2.481  -0.050  1.00  0.00    -0.246 OA
BRANCH  15  17
ATOM     17  O   UNL     1      -2.122  -2.944  -2.056  1.00  0.00    -0.478 OA
ATOM     18  H   UNL     1      -1.491  -3.691  -2.127  1.00  0.00     0.297 HD
ENDBRANCH  15  17
ENDBRANCH   4  15
BRANCH   5  19
ATOM     19  O   UNL     1      -2.272   0.045   0.626  1.00  0.00    -0.507 OA
ATOM     20  H   UNL     1      -2.005  -0.332   1.482  1.00  0.00     0.293 HD
ENDBRANCH   5  19
TORSDOF 4
ENDMDL
MODEL 3
REMARK VINA RESULT:    -6.871      1.273      2.738
REMARK INTER + INTRA:          -8.668
REMARK INTER:                  -7.969
REMARK INTRA:                  -0.699
REMARK UNBOUND:                -0.592
REMARK SMILES O=C(O)c1cc(-c2ccc(F)cc2F)ccc1O
REMARK SMILES IDX 6 1 5 2 15 3 4 4 17 5 16 6 7 7 13 8 12 9 8 10 10 11 9 12
REMARK SMILES IDX 14 13 11 14 2 15 1 16 3 17 18 19
REMARK H PARENT 3 18 18 20
ROOT
ATOM      1  C   UNL     1      -5.807  -1.754  -0.567  1.00  0.00    -0.014 A 
ATOM      2  C   UNL     1      -4.588  -2.357  -0.876  1.00  0.00     0.028 A 
ATOM      3  C   UNL     1      -5.830  -0.555   0.146  1.00  0.00     0.013 A 
ATOM      4  C   UNL     1      -3.392  -1.763  -0.472  1.00  0.00     0.102 A 
ATOM      5  C   UNL     1      -3.416  -0.564   0.241  1.00  0.00     0.130 A 
ATOM      6  C   UNL     1      -4.636   0.040   0.550  1.00  0.00     0.048 A 
ENDROOT
BRANCH   1   7
ATOM      7  C   UNL     1      -7.047  -2.371  -0.984  1.00  0.00     0.018 A 
ATOM      8  C   UNL     1      -8.081  -2.557  -0.066  1.00  0.00     0.133 A 
ATOM      9  C   UNL     1      -9.275  -3.152  -0.472  1.00  0.00     0.079 A 
ATOM     10  C   UNL     1      -7.209  -2.778  -2.308  1.00  0.00     0.015 A 
ATOM     11  C   UNL     1      -9.436  -3.561  -1.796  1.00  0.00     0.126 A 
ATOM     12  C   UNL     1      -8.403  -3.373  -2.714  1.00  0.00     0.040 A 
ATOM     13  F   UNL     1      -7.941  -2.173   1.211  1.00  0.00    -0.206 F 
ATOM     14  F   UNL     1     -10.582  -4.132  -2.187  1.00  0.00    -0.207 F 
ENDBRANCH   1   7
BRANCH   4  15
ATOM     15  C   UNL     1      -2.130  -2.409  -0.805  1.00  0.00     0.339 C 
ATOM     16  O   UNL     1      -1.151  -2.489  -0.060  1.00  0.00    -0.246 OA
BRANCH  15  17
ATOM     17  O   UNL     1      -2.133  -2.936  -2.060  1.00  0.00    -0.478 OA
ATOM     18  H   UNL     1      -1.253  -3.289  -2.309  1.00  0.00     0.297 HD
ENDBRANCH  15  17
ENDBRANCH   4  15
BRANCH   5  19
ATOM     19  O   UNL     1      -2.259   0.033   0.644  1.00  0.00    -0.507 OA
ATOM     20  H   UNL     1      -2.200   0.916   0.240  1.00  0.00     0.293 HD
ENDBRANCH   5  19
TORSDOF 4
ENDMDL
MODEL 4
REMARK VINA RESULT:    -5.106      4.370      6.687
REMARK INTER + INTRA:          -6.593
REMARK INTER:                  -5.519
REMARK INTRA:                  -1.074
REMARK UNBOUND:                -0.592
REMARK SMILES O=C(O)c1cc(-c2ccc(F)cc2F)ccc1O
REMARK SMILES IDX 6 1 5 2 15 3 4 4 17 5 16 6 7 7 13 8 12 9 8 10 10 11 9 12
REMARK SMILES IDX 14 13 11 14 2 15 1 16 3 17 18 19
REMARK H PARENT 3 18 18 20
ROOT
ATOM      1  C   UNL     1      -8.059  -2.886  -1.281  1.00  0.00    -0.014 A 
ATOM      2  C   UNL     1      -8.109  -4.276  -1.375  1.00  0.00     0.028 A 
ATOM      3  C   UNL     1      -9.171  -2.122  -1.634  1.00  0.00     0.013 A 
ATOM      4  C   UNL     1      -9.273  -4.904  -1.820  1.00  0.00     0.102 A 
ATOM      5  C   UNL     1     -10.386  -4.140  -2.173  1.00  0.00     0.130 A 
ATOM      6  C   UNL     1     -10.335  -2.748  -2.079  1.00  0.00     0.048 A 
ENDROOT
BRANCH   1   7
ATOM      7  C   UNL     1      -6.851  -2.234  -0.820  1.00  0.00     0.018 A 
ATOM      8  C   UNL     1      -6.721  -1.869   0.520  1.00  0.00     0.133 A 
ATOM      9  C   UNL     1      -5.555  -1.241   0.960  1.00  0.00     0.079 A 
ATOM     10  C   UNL     1      -5.818  -1.972  -1.719  1.00  0.00     0.015 A 
ATOM     11  C   UNL     1      -4.522  -0.978   0.061  1.00  0.00     0.126 A 
ATOM     12  C   UNL     1      -4.653  -1.345  -1.278  1.00  0.00     0.040 A 
ATOM     13  F   UNL     1      -7.706  -2.112   1.396  1.00  0.00    -0.206 F 
ATOM     14  F   UNL     1      -3.403  -0.375   0.483  1.00  0.00    -0.207 F 
ENDBRANCH   1   7
BRANCH   4  15
ATOM     15  C   UNL     1      -9.306  -6.357  -1.910  1.00  0.00     0.339 C 
ATOM     16  O   UNL     1     -10.311  -7.035  -2.136  1.00  0.00    -0.246 OA
BRANCH  15  17
ATOM     17  O   UNL     1      -8.080  -6.916  -1.717  1.00  0.00    -0.478 OA
ATOM     18  H   UNL     1      -7.372  -6.406  -2.162  1.00  0.00     0.297 HD
ENDBRANCH  15  17
ENDBRANCH   4  15
BRANCH   5  19
ATOM     19  O   UNL     1     -11.532  -4.734  -2.610  1.00  0.00    -0.507 OA
ATOM     20  H   UNL     1     -11.819  -4.302  -3.433  1.00  0.00     0.293 HD
ENDBRANCH   5  19
TORSDOF 4
ENDMDL
MODEL 5
REMARK VINA RESULT:    -5.086      4.029      6.267
REMARK INTER + INTRA:          -6.570
REMARK INTER:                  -5.502
REMARK INTRA:                  -1.068
REMARK UNBOUND:                -0.592
REMARK SMILES O=C(O)c1cc(-c2ccc(F)cc2F)ccc1O
REMARK SMILES IDX 6 1 5 2 15 3 4 4 17 5 16 6 7 7 13 8 12 9 8 10 10 11 9 12
REMARK SMILES IDX 14 13 11 14 2 15 1 16 3 17 18 19
REMARK H PARENT 3 18 18 20
ROOT
ATOM      1  C   UNL     1      -8.057  -2.786  -1.218  1.00  0.00    -0.014 A 
ATOM      2  C   UNL     1      -9.193  -2.054  -1.561  1.00  0.00     0.028 A 
ATOM      3  C   UNL     1      -8.057  -4.175  -1.344  1.00  0.00     0.013 A 
ATOM      4  C   UNL     1     -10.331  -2.711  -2.030  1.00  0.00     0.102 A 
ATOM      5  C   UNL     1     -10.331  -4.100  -2.157  1.00  0.00     0.130 A 
ATOM      6  C   UNL     1      -9.194  -4.832  -1.814  1.00  0.00     0.048 A 
ENDROOT
BRANCH   1   7
ATOM      7  C   UNL     1      -6.877  -2.105  -0.729  1.00  0.00     0.018 A 
ATOM      8  C   UNL     1      -6.768  -1.773   0.622  1.00  0.00     0.133 A 
ATOM      9  C   UNL     1      -5.629  -1.117   1.088  1.00  0.00     0.079 A 
ATOM     10  C   UNL     1      -5.846  -1.783  -1.612  1.00  0.00     0.015 A 
ATOM     11  C   UNL     1      -4.599  -0.794   0.205  1.00  0.00     0.126 A 
ATOM     12  C   UNL     1      -4.708  -1.128  -1.145  1.00  0.00     0.040 A 
ATOM     13  F   UNL     1      -7.751  -2.073   1.482  1.00  0.00    -0.206 F 
ATOM     14  F   UNL     1      -3.505  -0.164   0.653  1.00  0.00    -0.207 F 
ENDBRANCH   1   7
BRANCH   4  15
ATOM     15  C   UNL     1     -11.507  -1.928  -2.383  1.00  0.00     0.339 C 
ATOM     16  O   UNL     1     -12.660  -2.361  -2.447  1.00  0.00    -0.246 OA
BRANCH  15  17
ATOM     17  O   UNL     1     -11.205  -0.627  -2.645  1.00  0.00    -0.478 OA
ATOM     18  H   UNL     1     -10.292  -0.402  -2.368  1.00  0.00     0.297 HD
ENDBRANCH  15  17
ENDBRANCH   4  15
BRANCH   5  19
ATOM     19  O   UNL     1     -11.433  -4.760  -2.614  1.00  0.00    -0.507 OA
ATOM     20  H   UNL     1     -11.257  -5.717  -2.599  1.00  0.00     0.293 HD
ENDBRANCH   5  19
TORSDOF 4
ENDMDL
MODEL 6
REMARK VINA RESULT:    -4.736      1.327      1.642
REMARK INTER + INTRA:          -6.158
REMARK INTER:                  -5.472
REMARK INTRA:                  -0.686
REMARK UNBOUND:                -0.592
REMARK SMILES O=C(O)c1cc(-c2ccc(F)cc2F)ccc1O
REMARK SMILES IDX 6 1 5 2 15 3 4 4 17 5 16 6 7 7 13 8 12 9 8 10 10 11 9 12
REMARK SMILES IDX 14 13 11 14 2 15 1 16 3 17 18 19
REMARK H PARENT 3 18 18 20
ROOT
ATOM      1  C   UNL     1      -6.524  -2.113  -1.118  1.00  0.00    -0.014 A 
ATOM      2  C   UNL     1      -6.544  -1.200  -0.064  1.00  0.00     0.028 A 
ATOM      3  C   UNL     1      -5.352  -2.310  -1.848  1.00  0.00     0.013 A 
ATOM      4  C   UNL     1      -5.392  -0.483   0.260  1.00  0.00     0.102 A 
ATOM      5  C   UNL     1      -4.220  -0.679  -0.470  1.00  0.00     0.130 A 
ATOM      6  C   UNL     1      -4.200  -1.593  -1.525  1.00  0.00     0.048 A 
ENDROOT
BRANCH   1   7
ATOM      7  C   UNL     1      -7.719  -2.857  -1.455  1.00  0.00     0.018 A 
ATOM      8  C   UNL     1      -8.911  -2.183  -1.723  1.00  0.00     0.133 A 
ATOM      9  C   UNL     1     -10.060  -2.904  -2.048  1.00  0.00     0.079 A 
ATOM     10  C   UNL     1      -7.676  -4.250  -1.513  1.00  0.00     0.015 A 
ATOM     11  C   UNL     1     -10.018  -4.296  -2.105  1.00  0.00     0.126 A 
ATOM     12  C   UNL     1      -8.826  -4.969  -1.838  1.00  0.00     0.040 A 
ATOM     13  F   UNL     1      -8.969  -0.845  -1.669  1.00  0.00    -0.206 F 
ATOM     14  F   UNL     1     -11.121  -4.989  -2.417  1.00  0.00    -0.207 F 
ENDBRANCH   1   7
BRANCH   4  15
ATOM     15  C   UNL     1      -5.434   0.466   1.364  1.00  0.00     0.339 C 
ATOM     16  O   UNL     1      -6.186   0.394   2.339  1.00  0.00    -0.246 OA
BRANCH  15  17
ATOM     17  O   UNL     1      -4.533   1.474   1.215  1.00  0.00    -0.478 OA
ATOM     18  H   UNL     1      -4.334   1.649   0.272  1.00  0.00     0.297 HD
ENDBRANCH  15  17
ENDBRANCH   4  15
BRANCH   5  19
ATOM     19  O   UNL     1      -3.084   0.011  -0.169  1.00  0.00    -0.507 OA
ATOM     20  H   UNL     1      -2.317  -0.580  -0.272  1.00  0.00     0.293 HD
ENDBRANCH   5  19
TORSDOF 4
ENDMDL
MODEL 7
REMARK VINA RESULT:    -4.397      2.151      3.247
REMARK INTER + INTRA:          -5.760
REMARK INTER:                  -4.740
REMARK INTRA:                  -1.020
REMARK UNBOUND:                -0.592
REMARK SMILES O=C(O)c1cc(-c2ccc(F)cc2F)ccc1O
REMARK SMILES IDX 6 1 5 2 15 3 4 4 17 5 16 6 7 7 13 8 12 9 8 10 10 11 9 12
REMARK SMILES IDX 14 13 11 14 2 15 1 16 3 17 18 19
REMARK H PARENT 3 18 18 20
ROOT
ATOM      1  C   UNL     1      -7.129  -2.406  -0.678  1.00  0.00    -0.014 A 
ATOM      2  C   UNL     1      -6.022  -2.417  -1.526  1.00  0.00     0.028 A 
ATOM      3  C   UNL     1      -6.969  -2.106   0.674  1.00  0.00     0.013 A 
ATOM      4  C   UNL     1      -4.754  -2.129  -1.021  1.00  0.00     0.102 A 
ATOM      5  C   UNL     1      -4.594  -1.829   0.332  1.00  0.00     0.130 A 
ATOM      6  C   UNL     1      -5.702  -1.817   1.180  1.00  0.00     0.048 A 
ENDROOT
BRANCH   1   7
ATOM      7  C   UNL     1      -8.445  -2.707  -1.201  1.00  0.00     0.018 A 
ATOM      8  C   UNL     1      -8.788  -4.021  -1.521  1.00  0.00     0.133 A 
ATOM      9  C   UNL     1     -10.057  -4.306  -2.025  1.00  0.00     0.079 A 
ATOM     10  C   UNL     1      -9.371  -1.680  -1.383  1.00  0.00     0.015 A 
ATOM     11  C   UNL     1     -10.982  -3.279  -2.208  1.00  0.00     0.126 A 
ATOM     12  C   UNL     1     -10.639  -1.966  -1.886  1.00  0.00     0.040 A 
ATOM     13  F   UNL     1      -7.909  -5.019  -1.355  1.00  0.00    -0.206 F 
ATOM     14  F   UNL     1     -12.201  -3.552  -2.692  1.00  0.00    -0.207 F 
ENDBRANCH   1   7
BRANCH   4  15
ATOM     15  C   UNL     1      -3.610  -2.145  -1.922  1.00  0.00     0.339 C 
ATOM     16  O   UNL     1      -2.434  -1.985  -1.586  1.00  0.00    -0.246 OA
BRANCH  15  17
ATOM     17  O   UNL     1      -3.973  -2.364  -3.216  1.00  0.00    -0.478 OA
ATOM     18  H   UNL     1      -3.332  -1.972  -3.845  1.00  0.00     0.297 HD
ENDBRANCH  15  17
ENDBRANCH   4  15
BRANCH   5  19
ATOM     19  O   UNL     1      -3.364  -1.543   0.845  1.00  0.00    -0.507 OA
ATOM     20  H   UNL     1      -3.003  -0.763   0.388  1.00  0.00     0.293 HD
ENDBRANCH   5  19
TORSDOF 4
ENDMDL
