MODEL 1
REMARK VINA RESULT:    -6.853      0.000      0.000
REMARK INTER + INTRA:          -8.696
REMARK INTER:                  -8.055
REMARK INTRA:                  -0.641
REMARK UNBOUND:                -0.641
REMARK SMILES O=C(O)c1cc(-c2ccc(F)cc2F)ccc1O
REMARK SMILES IDX 6 1 5 2 15 3 4 4 17 5 16 6 7 7 13 8 12 9 8 10 10 11 9 12
REMARK SMILES IDX 14 13 11 14 2 15 1 16 3 17 18 19
REMARK H PARENT 3 18 18 20
ROOT
ATOM      1  C   UNL     1       4.055  -6.372  -0.890  1.00  0.00    -0.014 A 
ATOM      2  C   UNL     1       2.665  -6.312  -0.790  1.00  0.00     0.028 A 
ATOM      3  C   UNL     1       4.800  -5.195  -0.971  1.00  0.00     0.013 A 
ATOM      4  C   UNL     1       2.020  -5.075  -0.769  1.00  0.00     0.102 A 
ATOM      5  C   UNL     1       2.765  -3.898  -0.850  1.00  0.00     0.130 A 
ATOM      6  C   UNL     1       4.156  -3.959  -0.950  1.00  0.00     0.048 A 
ENDROOT
BRANCH   1   7
ATOM      7  C   UNL     1       4.725  -7.654  -0.913  1.00  0.00     0.018 A 
ATOM      8  C   UNL     1       4.373  -8.644   0.005  1.00  0.00     0.133 A 
ATOM      9  C   UNL     1       5.022  -9.879  -0.020  1.00  0.00     0.079 A 
ATOM     10  C   UNL     1       5.722  -7.900  -1.856  1.00  0.00     0.015 A 
ATOM     11  C   UNL     1       6.020 -10.124  -0.962  1.00  0.00     0.126 A 
ATOM     12  C   UNL     1       6.370  -9.134  -1.881  1.00  0.00     0.040 A 
ATOM     13  F   UNL     1       3.418  -8.424   0.920  1.00  0.00    -0.206 F 
ATOM     14  F   UNL     1       6.643 -11.309  -0.987  1.00  0.00    -0.207 F 
ENDBRANCH   1   7
BRANCH   4  15
ATOM     15  C   UNL     1       0.568  -5.033  -0.663  1.00  0.00     0.339 C 
ATOM     16  O   UNL     1      -0.176  -4.312  -1.332  1.00  0.00    -0.246 OA
BRANCH  15  17
ATOM     17  O   UNL     1       0.092  -5.896   0.275  1.00  0.00    -0.478 OA
ATOM     18  H   UNL     1      -0.229  -5.426   1.073  1.00  0.00     0.297 HD
ENDBRANCH  15  17
ENDBRANCH   4  15
BRANCH   5  19
ATOM     19  O   UNL     1       2.154  -2.680  -0.831  1.00  0.00    -0.507 OA
ATOM     20  H   UNL     1       1.238  -2.779  -1.145  1.00  0.00     0.293 HD
ENDBRANCH   5  19
TORSDOF 4
ENDMDL
MODEL 2
REMARK VINA RESULT:    -6.833      1.655      3.142
REMARK INTER + INTRA:          -8.673
REMARK INTER:                  -8.078
REMARK INTRA:                  -0.595
REMARK UNBOUND:                -0.641
REMARK SMILES O=C(O)c1cc(-c2ccc(F)cc2F)ccc1O
REMARK SMILES IDX 6 1 5 2 15 3 4 4 17 5 16 6 7 7 13 8 12 9 8 10 10 11 9 12
REMARK SMILES IDX 14 13 11 14 2 15 1 16 3 17 18 19
REMARK H PARENT 3 18 18 20
ROOT
ATOM      1  C   UNL     1       4.003  -6.324  -0.981  1.00  0.00    -0.014 A 
ATOM      2  C   UNL     1       4.776  -5.169  -1.096  1.00  0.00     0.028 A 
ATOM      3  C   UNL     1       2.615  -6.227  -0.872  1.00  0.00     0.013 A 
ATOM      4  C   UNL     1       4.162  -3.916  -1.100  1.00  0.00     0.102 A 
ATOM      5  C   UNL     1       2.775  -3.819  -0.991  1.00  0.00     0.130 A 
ATOM      6  C   UNL     1       2.001  -4.975  -0.877  1.00  0.00     0.048 A 
ENDROOT
BRANCH   1   7
ATOM      7  C   UNL     1       4.638  -7.624  -0.975  1.00  0.00     0.018 A 
ATOM      8  C   UNL     1       5.632  -7.922  -1.909  1.00  0.00     0.133 A 
ATOM      9  C   UNL     1       6.242  -9.177  -1.899  1.00  0.00     0.079 A 
ATOM     10  C   UNL     1       4.257  -8.578  -0.032  1.00  0.00     0.015 A 
ATOM     11  C   UNL     1       5.860 -10.131  -0.957  1.00  0.00     0.126 A 
ATOM     12  C   UNL     1       4.868  -9.832  -0.023  1.00  0.00     0.040 A 
ATOM     13  F   UNL     1       6.008  -7.017  -2.823  1.00  0.00    -0.206 F 
ATOM     14  F   UNL     1       6.445 -11.336  -0.947  1.00  0.00    -0.207 F 
ENDBRANCH   1   7
BRANCH   4  15
ATOM     15  C   UNL     1       4.987  -2.722  -1.221  1.00  0.00     0.339 C 
ATOM     16  O   UNL     1       4.948  -1.748  -0.465  1.00  0.00    -0.246 OA
BRANCH  15  17
ATOM     17  O   UNL     1       5.836  -2.784  -2.283  1.00  0.00    -0.478 OA
ATOM     18  H   UNL     1       5.952  -1.909  -2.709  1.00  0.00     0.297 HD
ENDBRANCH  15  17
ENDBRANCH   4  15
BRANCH   5  19
ATOM     19  O   UNL     1       2.156  -2.604  -0.994  1.00  0.00    -0.507 OA
ATOM     20  H   UNL     1       1.972  -2.344  -1.914  1.00  0.00     0.293 HD
ENDBRANCH   5  19
TORSDOF 4
ENDMDL
MODEL 3
REMARK VINA RESULT:    -6.822      1.241      2.702
REMARK INTER + INTRA:          -8.659
REMARK INTER:                  -8.064
REMARK INTRA:                  -0.595
REMARK UNBOUND:                -0.641
REMARK SMILES O=C(O)c1cc(-c2ccc(F)cc2F)ccc1O
REMARK SMILES IDX 6 1 5 2 15 3 4 4 17 5 16 6 7 7 13 8 12 9 8 10 10 11 9 12
REMARK SMILES IDX 14 13 11 14 2 15 1 16 3 17 18 19
REMARK H PARENT 3 18 18 20
ROOT
ATOM      1  C   UNL     1       3.978  -6.321  -0.941  1.00  0.00    -0.014 A 
ATOM      2  C   UNL     1       4.757  -5.171  -1.068  1.00  0.00     0.028 A 
ATOM      3  C   UNL     1       2.592  -6.215  -0.829  1.00  0.00     0.013 A 
ATOM      4  C   UNL     1       4.150  -3.915  -1.083  1.00  0.00     0.102 A 
ATOM      5  C   UNL     1       2.764  -3.809  -0.970  1.00  0.00     0.130 A 
ATOM      6  C   UNL     1       1.985  -4.960  -0.843  1.00  0.00     0.048 A 
ENDROOT
BRANCH   1   7
ATOM      7  C   UNL     1       4.607  -7.624  -0.925  1.00  0.00     0.018 A 
ATOM      8  C   UNL     1       4.245  -8.565   0.040  1.00  0.00     0.133 A 
ATOM      9  C   UNL     1       4.854  -9.820   0.052  1.00  0.00     0.079 A 
ATOM     10  C   UNL     1       5.577  -7.938  -1.876  1.00  0.00     0.015 A 
ATOM     11  C   UNL     1       5.824 -10.134  -0.899  1.00  0.00     0.126 A 
ATOM     12  C   UNL     1       6.185  -9.193  -1.863  1.00  0.00     0.040 A 
ATOM     13  F   UNL     1       3.316  -8.277   0.963  1.00  0.00    -0.206 F 
ATOM     14  F   UNL     1       6.409 -11.338  -0.888  1.00  0.00    -0.207 F 
ENDBRANCH   1   7
BRANCH   4  15
ATOM     15  C   UNL     1       4.981  -2.726  -1.216  1.00  0.00     0.339 C 
ATOM     16  O   UNL     1       4.953  -1.748  -0.466  1.00  0.00    -0.246 OA
BRANCH  15  17
ATOM     17  O   UNL     1       5.823  -2.800  -2.283  1.00  0.00    -0.478 OA
ATOM     18  H   UNL     1       6.757  -2.905  -2.004  1.00  0.00     0.297 HD
ENDBRANCH  15  17
ENDBRANCH   4  15
BRANCH   5  19
ATOM     19  O   UNL     1       2.151  -2.592  -0.983  1.00  0.00    -0.507 OA
ATOM     20  H   UNL     1       2.499  -2.069  -1.726  1.00  0.00     0.293 HD
ENDBRANCH   5  19
TORSDOF 4
ENDMDL
MODEL 4
REMARK VINA RESULT:    -6.790      1.145      1.619
REMARK INTER + INTRA:          -8.622
REMARK INTER:                  -8.027
REMARK INTRA:                  -0.595
REMARK UNBOUND:                -0.641
REMARK SMILES O=C(O)c1cc(-c2ccc(F)cc2F)ccc1O
REMARK SMILES IDX 6 1 5 2 15 3 4 4 17 5 16 6 7 7 13 8 12 9 8 10 10 11 9 12
REMARK SMILES IDX 14 13 11 14 2 15 1 16 3 17 18 19
REMARK H PARENT 3 18 18 20
ROOT
ATOM      1  C   UNL     1       4.081  -6.268  -0.954  1.00  0.00    -0.014 A 
ATOM      2  C   UNL     1       2.696  -6.189  -0.822  1.00  0.00     0.028 A 
ATOM      3  C   UNL     1       4.839  -5.101  -1.060  1.00  0.00     0.013 A 
ATOM      4  C   UNL     1       2.066  -4.945  -0.796  1.00  0.00     0.102 A 
ATOM      5  C   UNL     1       2.823  -3.778  -0.902  1.00  0.00     0.130 A 
ATOM      6  C   UNL     1       4.210  -3.856  -1.034  1.00  0.00     0.048 A 
ENDROOT
BRANCH   1   7
ATOM      7  C   UNL     1       4.735  -7.558  -0.983  1.00  0.00     0.018 A 
ATOM      8  C   UNL     1       5.699  -7.834  -1.954  1.00  0.00     0.133 A 
ATOM      9  C   UNL     1       6.326  -9.080  -1.978  1.00  0.00     0.079 A 
ATOM     10  C   UNL     1       4.400  -8.527  -0.037  1.00  0.00     0.015 A 
ATOM     11  C   UNL     1       5.991 -10.049  -1.033  1.00  0.00     0.126 A 
ATOM     12  C   UNL     1       5.028  -9.772  -0.062  1.00  0.00     0.040 A 
ATOM     13  F   UNL     1       6.030  -6.915  -2.872  1.00  0.00    -0.206 F 
ATOM     14  F   UNL     1       6.592 -11.245  -1.055  1.00  0.00    -0.207 F 
ENDBRANCH   1   7
BRANCH   4  15
ATOM     15  C   UNL     1       0.618  -4.884  -0.656  1.00  0.00     0.339 C 
ATOM     16  O   UNL     1      -0.146  -4.263  -1.400  1.00  0.00    -0.246 OA
BRANCH  15  17
ATOM     17  O   UNL     1       0.169  -5.605   0.407  1.00  0.00    -0.478 OA
ATOM     18  H   UNL     1      -0.504  -5.113   0.923  1.00  0.00     0.297 HD
ENDBRANCH  15  17
ENDBRANCH   4  15
BRANCH   5  19
ATOM     19  O   UNL     1       2.228  -2.552  -0.877  1.00  0.00    -0.507 OA
ATOM     20  H   UNL     1       2.242  -2.175  -1.774  1.00  0.00     0.293 HD
ENDBRANCH   5  19
TORSDOF 4
ENDMDL
MODEL 5
REMARK VINA RESULT:    -5.298      4.020      6.302
REMARK INTER + INTRA:          -6.869
REMARK INTER:                  -5.791
REMARK INTRA:                  -1.078
REMARK UNBOUND:                -0.641
REMARK SMILES O=C(O)c1cc(-c2ccc(F)cc2F)ccc1O
REMARK SMILES IDX 6 1 5 2 15 3 4 4 17 5 16 6 7 7 13 8 12 9 8 10 10 11 9 12
REMARK SMILES IDX 14 13 11 14 2 15 1 16 3 17 18 19
REMARK H PARENT 3 18 18 20
ROOT
ATOM      1  C   UNL     1       5.228  -8.786  -0.906  1.00  0.00    -0.014 A 
ATOM      2  C   UNL     1       4.648  -9.879  -1.549  1.00  0.00     0.028 A 
ATOM      3  C   UNL     1       6.465  -8.924  -0.276  1.00  0.00     0.013 A 
ATOM      4  C   UNL     1       5.304 -11.110  -1.563  1.00  0.00     0.102 A 
ATOM      5  C   UNL     1       6.541 -11.248  -0.933  1.00  0.00     0.130 A 
ATOM      6  C   UNL     1       7.122 -10.154  -0.289  1.00  0.00     0.048 A 
ENDROOT
BRANCH   1   7
ATOM      7  C   UNL     1       4.547  -7.509  -0.890  1.00  0.00     0.018 A 
ATOM      8  C   UNL     1       3.587  -7.240   0.086  1.00  0.00     0.133 A 
ATOM      9  C   UNL     1       2.933  -6.007   0.098  1.00  0.00     0.079 A 
ATOM     10  C   UNL     1       4.854  -6.548  -1.852  1.00  0.00     0.015 A 
ATOM     11  C   UNL     1       3.239  -5.046  -0.865  1.00  0.00     0.126 A 
ATOM     12  C   UNL     1       4.200  -5.316  -1.840  1.00  0.00     0.040 A 
ATOM     13  F   UNL     1       3.280  -8.154   1.017  1.00  0.00    -0.206 F 
ATOM     14  F   UNL     1       2.612  -3.863  -0.854  1.00  0.00    -0.207 F 
ENDBRANCH   1   7
BRANCH   4  15
ATOM     15  C   UNL     1       4.682 -12.239  -2.241  1.00  0.00     0.339 C 
ATOM     16  O   UNL     1       5.198 -13.347  -2.402  1.00  0.00    -0.246 OA
BRANCH  15  17
ATOM     17  O   UNL     1       3.433 -11.946  -2.694  1.00  0.00    -0.478 OA
ATOM     18  H   UNL     1       2.975 -11.304  -2.112  1.00  0.00     0.297 HD
ENDBRANCH  15  17
ENDBRANCH   4  15
BRANCH   5  19
ATOM     19  O   UNL     1       7.199 -12.441  -0.936  1.00  0.00    -0.507 OA
ATOM     20  H   UNL     1       6.585 -13.142  -1.217  1.00  0.00     0.293 HD
ENDBRANCH   5  19
TORSDOF 4
ENDMDL
MODEL 6
REMARK VINA RESULT:    -5.298      4.363      6.697
REMARK INTER + INTRA:          -6.868
REMARK INTER:                  -5.818
REMARK INTRA:                  -1.050
REMARK UNBOUND:                -0.641
REMARK SMILES O=C(O)c1cc(-c2ccc(F)cc2F)ccc1O
REMARK SMILES IDX 6 1 5 2 15 3 4 4 17 5 16 6 7 7 13 8 12 9 8 10 10 11 9 12
REMARK SMILES IDX 14 13 11 14 2 15 1 16 3 17 18 19
REMARK H PARENT 3 18 18 20
ROOT
ATOM      1  C   UNL     1       5.222  -8.769  -0.923  1.00  0.00    -0.014 A 
ATOM      2  C   UNL     1       6.484  -8.902  -0.345  1.00  0.00     0.028 A 
ATOM      3  C   UNL     1       4.605  -9.873  -1.512  1.00  0.00     0.013 A 
ATOM      4  C   UNL     1       7.130 -10.139  -0.356  1.00  0.00     0.102 A 
ATOM      5  C   UNL     1       6.512 -11.243  -0.945  1.00  0.00     0.130 A 
ATOM      6  C   UNL     1       5.249 -11.109  -1.523  1.00  0.00     0.048 A 
ENDROOT
BRANCH   1   7
ATOM      7  C   UNL     1       4.552  -7.486  -0.914  1.00  0.00     0.018 A 
ATOM      8  C   UNL     1       3.593  -7.204   0.059  1.00  0.00     0.133 A 
ATOM      9  C   UNL     1       2.949  -5.966   0.064  1.00  0.00     0.079 A 
ATOM     10  C   UNL     1       4.869  -6.531  -1.879  1.00  0.00     0.015 A 
ATOM     11  C   UNL     1       3.265  -5.012  -0.901  1.00  0.00     0.126 A 
ATOM     12  C   UNL     1       4.226  -5.294  -1.873  1.00  0.00     0.040 A 
ATOM     13  F   UNL     1       3.275  -8.113   0.992  1.00  0.00    -0.206 F 
ATOM     14  F   UNL     1       2.648  -3.823  -0.897  1.00  0.00    -0.207 F 
ENDBRANCH   1   7
BRANCH   4  15
ATOM     15  C   UNL     1       8.447 -10.257   0.253  1.00  0.00     0.339 C 
ATOM     16  O   UNL     1       9.325 -11.052  -0.093  1.00  0.00    -0.246 OA
BRANCH  15  17
ATOM     17  O   UNL     1       8.627  -9.377   1.275  1.00  0.00    -0.478 OA
ATOM     18  H   UNL     1       9.021  -9.808   2.062  1.00  0.00     0.297 HD
ENDBRANCH  15  17
ENDBRANCH   4  15
BRANCH   5  19
ATOM     19  O   UNL     1       7.126 -12.460  -0.965  1.00  0.00    -0.507 OA
ATOM     20  H   UNL     1       6.539 -13.118  -0.554  1.00  0.00     0.293 HD
ENDBRANCH   5  19
TORSDOF 4
ENDMDL
