MODEL 1
REMARK VINA RESULT:    -5.169      0.000      0.000
REMARK INTER + INTRA:          -7.190
REMARK INTER:                  -6.377
REMARK INTRA:                  -0.812
REMARK UNBOUND:                -0.812
REMARK SMILES Cc1ccc(C(=O)c2cc(O)c(O)c([N+](=O)[O-])c2)cc1
REMARK SMILES IDX 8 1 18 2 9 3 14 4 10 5 12 6 6 7 7 8 5 9 4 10 19 11 3 12
REMARK SMILES IDX 20 13 2 14 1 15 15 16 17 17 16 18 11 19 13 21
REMARK H PARENT 11 20 13 22
ROOT
ATOM      1  C   UNL     1       4.617  -5.909  -0.340  1.00  0.00     0.033 A 
ATOM      2  C   UNL     1       3.255  -6.097  -0.317  1.00  0.00     0.102 A 
ATOM      3  C   UNL     1       5.198  -4.685  -0.575  1.00  0.00     0.063 A 
ATOM      4  C   UNL     1       2.426  -4.998  -0.540  1.00  0.00     0.315 A 
ATOM      5  C   UNL     1       4.369  -3.586  -0.800  1.00  0.00     0.165 A 
ATOM      6  C   UNL     1       2.982  -3.742  -0.781  1.00  0.00     0.237 A 
ENDROOT
BRANCH   1   7
ATOM      7  C   UNL     1       5.505  -7.086  -0.101  1.00  0.00     0.193 C 
ATOM      8  O   UNL     1       6.511  -6.907   0.602  1.00  0.00    -0.289 OA
BRANCH   7   9
ATOM      9  C   UNL     1       5.225  -8.400  -0.658  1.00  0.00     0.023 A 
ATOM     10  C   UNL     1       5.767  -8.765  -1.890  1.00  0.00     0.012 A 
ATOM     11  C   UNL     1       4.415  -9.295   0.040  1.00  0.00     0.012 A 
ATOM     12  C   UNL     1       5.499 -10.025  -2.424  1.00  0.00     0.004 A 
ATOM     13  C   UNL     1       4.146 -10.556  -0.494  1.00  0.00     0.004 A 
ATOM     14  C   UNL     1       4.688 -10.922  -1.726  1.00  0.00    -0.051 A 
ATOM     15  C   UNL     1       4.400 -12.268  -2.298  1.00  0.00     0.044 C 
ENDBRANCH   7   9
ENDBRANCH   1   7
BRANCH   4  16
ATOM     16  N   UNL     1       1.015  -5.176  -0.518  1.00  0.00     0.066 N 
ATOM     17  O   UNL     1       0.519  -5.982   0.306  1.00  0.00    -0.258 OA
ATOM     18  O   UNL     1       0.309  -4.524  -1.322  1.00  0.00    -0.258 OA
ENDBRANCH   4  16
BRANCH   5  19
ATOM     19  O   UNL     1       4.927  -2.365  -1.034  1.00  0.00    -0.504 OA
ATOM     20  H   UNL     1       4.676  -1.751  -0.324  1.00  0.00     0.293 HD
ENDBRANCH   5  19
BRANCH   6  21
ATOM     21  O   UNL     1       2.182  -2.659  -1.001  1.00  0.00    -0.500 OA
ATOM     22  H   UNL     1       2.704  -1.845  -0.916  1.00  0.00     0.294 HD
ENDBRANCH   6  21
TORSDOF 5
ENDMDL
MODEL 2
REMARK VINA RESULT:    -5.132      2.056      3.563
REMARK INTER + INTRA:          -7.144
REMARK INTER:                  -6.320
REMARK INTRA:                  -0.824
REMARK UNBOUND:                -0.812
REMARK SMILES Cc1ccc(C(=O)c2cc(O)c(O)c([N+](=O)[O-])c2)cc1
REMARK SMILES IDX 8 1 18 2 9 3 14 4 10 5 12 6 6 7 7 8 5 9 4 10 19 11 3 12
REMARK SMILES IDX 20 13 2 14 1 15 15 16 17 17 16 18 11 19 13 21
REMARK H PARENT 11 20 13 22
ROOT
ATOM      1  C   UNL     1       3.370  -6.529  -1.543  1.00  0.00     0.033 A 
ATOM      2  C   UNL     1       4.347  -5.561  -1.566  1.00  0.00     0.102 A 
ATOM      3  C   UNL     1       2.046  -6.248  -1.302  1.00  0.00     0.063 A 
ATOM      4  C   UNL     1       3.978  -4.235  -1.337  1.00  0.00     0.315 A 
ATOM      5  C   UNL     1       1.677  -4.923  -1.072  1.00  0.00     0.165 A 
ATOM      6  C   UNL     1       2.643  -3.916  -1.089  1.00  0.00     0.237 A 
ENDROOT
BRANCH   1   7
ATOM      7  C   UNL     1       3.765  -7.949  -1.789  1.00  0.00     0.193 C 
ATOM      8  O   UNL     1       3.010  -8.635  -2.494  1.00  0.00    -0.289 OA
BRANCH   7   9
ATOM      9  C   UNL     1       4.980  -8.527  -1.238  1.00  0.00     0.023 A 
ATOM     10  C   UNL     1       4.947  -9.169   0.000  1.00  0.00     0.012 A 
ATOM     11  C   UNL     1       6.178  -8.439  -1.946  1.00  0.00     0.012 A 
ATOM     12  C   UNL     1       6.113  -9.724   0.529  1.00  0.00     0.004 A 
ATOM     13  C   UNL     1       7.345  -8.994  -1.417  1.00  0.00     0.004 A 
ATOM     14  C   UNL     1       7.312  -9.636  -0.180  1.00  0.00    -0.051 A 
ATOM     15  C   UNL     1       8.557 -10.228   0.387  1.00  0.00     0.044 C 
ENDBRANCH   7   9
ENDBRANCH   1   7
BRANCH   4  16
ATOM     16  N   UNL     1       4.976  -3.223  -1.358  1.00  0.00     0.066 N 
ATOM     17  O   UNL     1       5.911  -3.312  -2.190  1.00  0.00    -0.258 OA
ATOM     18  O   UNL     1       4.893  -2.273  -0.546  1.00  0.00    -0.258 OA
ENDBRANCH   4  16
BRANCH   5  19
ATOM     19  O   UNL     1       0.369  -4.625  -0.832  1.00  0.00    -0.504 OA
ATOM     20  H   UNL     1      -0.010  -4.177  -1.606  1.00  0.00     0.293 HD
ENDBRANCH   5  19
BRANCH   6  21
ATOM     21  O   UNL     1       2.269  -2.623  -0.863  1.00  0.00    -0.500 OA
ATOM     22  H   UNL     1       1.894  -2.245  -1.674  1.00  0.00     0.294 HD
ENDBRANCH   6  21
TORSDOF 5
ENDMDL
MODEL 3
REMARK VINA RESULT:    -4.331      3.881      7.094
REMARK INTER + INTRA:          -6.157
REMARK INTER:                  -5.501
REMARK INTRA:                  -0.656
REMARK UNBOUND:                -0.812
REMARK SMILES Cc1ccc(C(=O)c2cc(O)c(O)c([N+](=O)[O-])c2)cc1
REMARK SMILES IDX 8 1 18 2 9 3 14 4 10 5 12 6 6 7 7 8 5 9 4 10 19 11 3 12
REMARK SMILES IDX 20 13 2 14 1 15 15 16 17 17 16 18 11 19 13 21
REMARK H PARENT 11 20 13 22
ROOT
ATOM      1  C   UNL     1       5.776  -9.437  -0.901  1.00  0.00     0.033 A 
ATOM      2  C   UNL     1       5.659 -10.758  -1.267  1.00  0.00     0.102 A 
ATOM      3  C   UNL     1       6.868  -8.943  -0.228  1.00  0.00     0.063 A 
ATOM      4  C   UNL     1       6.695 -11.634  -0.941  1.00  0.00     0.315 A 
ATOM      5  C   UNL     1       7.903  -9.819   0.099  1.00  0.00     0.165 A 
ATOM      6  C   UNL     1       7.817 -11.165  -0.259  1.00  0.00     0.237 A 
ENDROOT
BRANCH   1   7
ATOM      7  C   UNL     1       4.667  -8.499  -1.250  1.00  0.00     0.193 C 
ATOM      8  O   UNL     1       3.563  -8.997  -1.518  1.00  0.00    -0.289 OA
BRANCH   7   9
ATOM      9  C   UNL     1       4.847  -7.056  -1.280  1.00  0.00     0.023 A 
ATOM     10  C   UNL     1       5.273  -6.431  -2.452  1.00  0.00     0.012 A 
ATOM     11  C   UNL     1       4.593  -6.297  -0.137  1.00  0.00     0.012 A 
ATOM     12  C   UNL     1       5.445  -5.047  -2.480  1.00  0.00     0.004 A 
ATOM     13  C   UNL     1       4.765  -4.913  -0.166  1.00  0.00     0.004 A 
ATOM     14  C   UNL     1       5.191  -4.287  -1.338  1.00  0.00    -0.051 A 
ATOM     15  C   UNL     1       5.377  -2.809  -1.369  1.00  0.00     0.044 C 
ENDBRANCH   7   9
ENDBRANCH   1   7
BRANCH   4  16
ATOM     16  N   UNL     1       6.589 -13.003  -1.313  1.00  0.00     0.066 N 
ATOM     17  O   UNL     1       5.609 -13.368  -2.007  1.00  0.00    -0.258 OA
ATOM     18  O   UNL     1       7.477 -13.803  -0.938  1.00  0.00    -0.258 OA
ENDBRANCH   4  16
BRANCH   5  19
ATOM     19  O   UNL     1       8.994  -9.346   0.765  1.00  0.00    -0.504 OA
ATOM     20  H   UNL     1       8.879  -8.399   0.946  1.00  0.00     0.293 HD
ENDBRANCH   5  19
BRANCH   6  21
ATOM     21  O   UNL     1       8.837 -12.012   0.066  1.00  0.00    -0.500 OA
ATOM     22  H   UNL     1       8.839 -12.768  -0.542  1.00  0.00     0.294 HD
ENDBRANCH   6  21
TORSDOF 5
ENDMDL
MODEL 4
REMARK VINA RESULT:    -4.309      3.946      7.219
REMARK INTER + INTRA:          -6.129
REMARK INTER:                  -5.475
REMARK INTRA:                  -0.654
REMARK UNBOUND:                -0.812
REMARK SMILES Cc1ccc(C(=O)c2cc(O)c(O)c([N+](=O)[O-])c2)cc1
REMARK SMILES IDX 8 1 18 2 9 3 14 4 10 5 12 6 6 7 7 8 5 9 4 10 19 11 3 12
REMARK SMILES IDX 20 13 2 14 1 15 15 16 17 17 16 18 11 19 13 21
REMARK H PARENT 11 20 13 22
ROOT
ATOM      1  C   UNL     1       5.448  -9.623  -1.024  1.00  0.00     0.033 A 
ATOM      2  C   UNL     1       6.565 -10.345  -0.673  1.00  0.00     0.102 A 
ATOM      3  C   UNL     1       4.386 -10.173  -1.702  1.00  0.00     0.063 A 
ATOM      4  C   UNL     1       6.622 -11.695  -1.018  1.00  0.00     0.315 A 
ATOM      5  C   UNL     1       4.443 -11.523  -2.049  1.00  0.00     0.165 A 
ATOM      6  C   UNL     1       5.562 -12.285  -1.706  1.00  0.00     0.237 A 
ENDROOT
BRANCH   1   7
ATOM      7  C   UNL     1       5.387  -8.177  -0.654  1.00  0.00     0.193 C 
ATOM      8  O   UNL     1       6.457  -7.615  -0.376  1.00  0.00    -0.289 OA
BRANCH   7   9
ATOM      9  C   UNL     1       4.137  -7.434  -0.615  1.00  0.00     0.023 A 
ATOM     10  C   UNL     1       3.384  -7.398   0.559  1.00  0.00     0.012 A 
ATOM     11  C   UNL     1       3.691  -6.758  -1.750  1.00  0.00     0.012 A 
ATOM     12  C   UNL     1       2.186  -6.686   0.597  1.00  0.00     0.004 A 
ATOM     13  C   UNL     1       2.492  -6.045  -1.713  1.00  0.00     0.004 A 
ATOM     14  C   UNL     1       1.739  -6.009  -0.539  1.00  0.00    -0.051 A 
ATOM     15  C   UNL     1       0.457  -5.249  -0.499  1.00  0.00     0.044 C 
ENDBRANCH   7   9
ENDBRANCH   1   7
BRANCH   4  16
ATOM     16  N   UNL     1       7.770 -12.455  -0.661  1.00  0.00     0.066 N 
ATOM     17  O   UNL     1       7.845 -13.650  -1.034  1.00  0.00    -0.258 OA
ATOM     18  O   UNL     1       8.672 -11.908   0.015  1.00  0.00    -0.258 OA
ENDBRANCH   4  16
BRANCH   5  19
ATOM     19  O   UNL     1       3.400 -12.086  -2.720  1.00  0.00    -0.504 OA
ATOM     20  H   UNL     1       2.583 -11.974  -2.206  1.00  0.00     0.293 HD
ENDBRANCH   5  19
BRANCH   6  21
ATOM     21  O   UNL     1       5.606 -13.605  -2.050  1.00  0.00    -0.500 OA
ATOM     22  H   UNL     1       6.499 -13.951  -1.899  1.00  0.00     0.294 HD
ENDBRANCH   6  21
TORSDOF 5
ENDMDL
MODEL 5
REMARK VINA RESULT:    -4.256      3.667      6.608
REMARK INTER + INTRA:          -6.064
REMARK INTER:                  -5.119
REMARK INTRA:                  -0.945
REMARK UNBOUND:                -0.812
REMARK SMILES Cc1ccc(C(=O)c2cc(O)c(O)c([N+](=O)[O-])c2)cc1
REMARK SMILES IDX 8 1 18 2 9 3 14 4 10 5 12 6 6 7 7 8 5 9 4 10 19 11 3 12
REMARK SMILES IDX 20 13 2 14 1 15 15 16 17 17 16 18 11 19 13 21
REMARK H PARENT 11 20 13 22
ROOT
ATOM      1  C   UNL     1       5.997  -8.885  -1.482  1.00  0.00     0.033 A 
ATOM      2  C   UNL     1       5.242  -9.961  -1.888  1.00  0.00     0.102 A 
ATOM      3  C   UNL     1       7.169  -9.019  -0.777  1.00  0.00     0.063 A 
ATOM      4  C   UNL     1       5.686 -11.245  -1.571  1.00  0.00     0.315 A 
ATOM      5  C   UNL     1       7.613 -10.303  -0.458  1.00  0.00     0.165 A 
ATOM      6  C   UNL     1       6.872 -11.416  -0.856  1.00  0.00     0.237 A 
ENDROOT
BRANCH   1   7
ATOM      7  C   UNL     1       5.521  -7.510  -1.822  1.00  0.00     0.193 C 
ATOM      8  O   UNL     1       6.277  -6.798  -2.500  1.00  0.00    -0.289 OA
BRANCH   7   9
ATOM      9  C   UNL     1       4.229  -7.003  -1.390  1.00  0.00     0.023 A 
ATOM     10  C   UNL     1       3.800  -7.214  -0.079  1.00  0.00     0.012 A 
ATOM     11  C   UNL     1       3.418  -6.305  -2.284  1.00  0.00     0.012 A 
ATOM     12  C   UNL     1       2.561  -6.728   0.336  1.00  0.00     0.004 A 
ATOM     13  C   UNL     1       2.178  -5.817  -1.870  1.00  0.00     0.004 A 
ATOM     14  C   UNL     1       1.749  -6.029  -0.559  1.00  0.00    -0.051 A 
ATOM     15  C   UNL     1       0.424  -5.510  -0.115  1.00  0.00     0.044 C 
ENDBRANCH   7   9
ENDBRANCH   1   7
BRANCH   4  16
ATOM     16  N   UNL     1       4.917 -12.367  -1.984  1.00  0.00     0.066 N 
ATOM     17  O   UNL     1       3.673 -12.245  -2.085  1.00  0.00    -0.258 OA
ATOM     18  O   UNL     1       5.505 -13.445  -2.235  1.00  0.00    -0.258 OA
ENDBRANCH   4  16
BRANCH   5  19
ATOM     19  O   UNL     1       8.773 -10.455   0.240  1.00  0.00    -0.504 OA
ATOM     20  H   UNL     1       8.954  -9.648   0.751  1.00  0.00     0.293 HD
ENDBRANCH   5  19
BRANCH   6  21
ATOM     21  O   UNL     1       7.317 -12.667  -0.539  1.00  0.00    -0.500 OA
ATOM     22  H   UNL     1       8.133 -12.600  -0.019  1.00  0.00     0.294 HD
ENDBRANCH   6  21
TORSDOF 5
ENDMDL
MODEL 6
REMARK VINA RESULT:    -4.230      1.950      2.281
REMARK INTER + INTRA:          -6.031
REMARK INTER:                  -5.286
REMARK INTRA:                  -0.745
REMARK UNBOUND:                -0.812
REMARK SMILES Cc1ccc(C(=O)c2cc(O)c(O)c([N+](=O)[O-])c2)cc1
REMARK SMILES IDX 8 1 18 2 9 3 14 4 10 5 12 6 6 7 7 8 5 9 4 10 19 11 3 12
REMARK SMILES IDX 20 13 2 14 1 15 15 16 17 17 16 18 11 19 13 21
REMARK H PARENT 11 20 13 22
ROOT
ATOM      1  C   UNL     1       3.800  -6.851  -1.472  1.00  0.00     0.033 A 
ATOM      2  C   UNL     1       2.492  -6.562  -1.157  1.00  0.00     0.102 A 
ATOM      3  C   UNL     1       4.758  -5.880  -1.644  1.00  0.00     0.063 A 
ATOM      4  C   UNL     1       2.122  -5.226  -1.005  1.00  0.00     0.315 A 
ATOM      5  C   UNL     1       4.388  -4.543  -1.493  1.00  0.00     0.165 A 
ATOM      6  C   UNL     1       3.070  -4.216  -1.173  1.00  0.00     0.237 A 
ENDROOT
BRANCH   1   7
ATOM      7  C   UNL     1       4.196  -8.282  -1.635  1.00  0.00     0.193 C 
ATOM      8  O   UNL     1       3.445  -9.007  -2.305  1.00  0.00    -0.289 OA
BRANCH   7   9
ATOM      9  C   UNL     1       5.407  -8.828  -1.044  1.00  0.00     0.023 A 
ATOM     10  C   UNL     1       6.613  -8.767  -1.743  1.00  0.00     0.012 A 
ATOM     11  C   UNL     1       5.364  -9.412   0.221  1.00  0.00     0.012 A 
ATOM     12  C   UNL     1       7.775  -9.290  -1.176  1.00  0.00     0.004 A 
ATOM     13  C   UNL     1       6.526  -9.936   0.790  1.00  0.00     0.004 A 
ATOM     14  C   UNL     1       7.732  -9.875   0.091  1.00  0.00    -0.051 A 
ATOM     15  C   UNL     1       8.973 -10.436   0.696  1.00  0.00     0.044 C 
ENDBRANCH   7   9
ENDBRANCH   1   7
BRANCH   4  16
ATOM     16  N   UNL     1       0.774  -4.911  -0.679  1.00  0.00     0.066 N 
ATOM     17  O   UNL     1       0.280  -5.380   0.375  1.00  0.00    -0.258 OA
ATOM     18  O   UNL     1       0.119  -4.176  -1.454  1.00  0.00    -0.258 OA
ENDBRANCH   4  16
BRANCH   5  19
ATOM     19  O   UNL     1       5.324  -3.568  -1.659  1.00  0.00    -0.504 OA
ATOM     20  H   UNL     1       4.922  -2.802  -2.101  1.00  0.00     0.293 HD
ENDBRANCH   5  19
BRANCH   6  21
ATOM     21  O   UNL     1       2.720  -2.905  -1.026  1.00  0.00    -0.500 OA
ATOM     22  H   UNL     1       3.323  -2.347  -1.542  1.00  0.00     0.294 HD
ENDBRANCH   6  21
TORSDOF 5
ENDMDL
MODEL 7
REMARK VINA RESULT:    -4.222      4.170      7.348
REMARK INTER + INTRA:          -6.022
REMARK INTER:                  -5.208
REMARK INTRA:                  -0.814
REMARK UNBOUND:                -0.812
REMARK SMILES Cc1ccc(C(=O)c2cc(O)c(O)c([N+](=O)[O-])c2)cc1
REMARK SMILES IDX 8 1 18 2 9 3 14 4 10 5 12 6 6 7 7 8 5 9 4 10 19 11 3 12
REMARK SMILES IDX 20 13 2 14 1 15 15 16 17 17 16 18 11 19 13 21
REMARK H PARENT 11 20 13 22
ROOT
ATOM      1  C   UNL     1       6.280  -9.798  -0.685  1.00  0.00     0.033 A 
ATOM      2  C   UNL     1       6.592 -11.094  -1.023  1.00  0.00     0.102 A 
ATOM      3  C   UNL     1       7.099  -9.010   0.088  1.00  0.00     0.063 A 
ATOM      4  C   UNL     1       7.794 -11.632  -0.563  1.00  0.00     0.315 A 
ATOM      5  C   UNL     1       8.301  -9.549   0.549  1.00  0.00     0.165 A 
ATOM      6  C   UNL     1       8.648 -10.860   0.223  1.00  0.00     0.237 A 
ENDROOT
BRANCH   1   7
ATOM      7  C   UNL     1       4.993  -9.221  -1.178  1.00  0.00     0.193 C 
ATOM      8  O   UNL     1       4.166 -10.007  -1.665  1.00  0.00    -0.289 OA
BRANCH   7   9
ATOM      9  C   UNL     1       4.695  -7.800  -1.101  1.00  0.00     0.023 A 
ATOM     10  C   UNL     1       3.908  -7.307  -0.060  1.00  0.00     0.012 A 
ATOM     11  C   UNL     1       5.197  -6.928  -2.067  1.00  0.00     0.012 A 
ATOM     12  C   UNL     1       3.623  -5.944   0.014  1.00  0.00     0.004 A 
ATOM     13  C   UNL     1       4.912  -5.564  -1.993  1.00  0.00     0.004 A 
ATOM     14  C   UNL     1       4.125  -5.072  -0.952  1.00  0.00    -0.051 A 
ATOM     15  C   UNL     1       3.819  -3.615  -0.874  1.00  0.00     0.044 C 
ENDBRANCH   7   9
ENDBRANCH   1   7
BRANCH   4  16
ATOM     16  N   UNL     1       8.130 -12.971  -0.905  1.00  0.00     0.066 N 
ATOM     17  O   UNL     1       9.333 -13.258  -1.116  1.00  0.00    -0.258 OA
ATOM     18  O   UNL     1       7.216 -13.824  -0.986  1.00  0.00    -0.258 OA
ENDBRANCH   4  16
BRANCH   5  19
ATOM     19  O   UNL     1       9.127  -8.782   1.316  1.00  0.00    -0.504 OA
ATOM     20  H   UNL     1       9.988  -9.223   1.407  1.00  0.00     0.293 HD
ENDBRANCH   5  19
BRANCH   6  21
ATOM     21  O   UNL     1       9.827 -11.376   0.679  1.00  0.00    -0.500 OA
ATOM     22  H   UNL     1      10.528 -11.212   0.029  1.00  0.00     0.294 HD
ENDBRANCH   6  21
TORSDOF 5
ENDMDL
MODEL 8
REMARK VINA RESULT:    -4.049      2.293      3.992
REMARK INTER + INTRA:          -5.809
REMARK INTER:                  -4.806
REMARK INTRA:                  -1.003
REMARK UNBOUND:                -0.812
REMARK SMILES Cc1ccc(C(=O)c2cc(O)c(O)c([N+](=O)[O-])c2)cc1
REMARK SMILES IDX 8 1 18 2 9 3 14 4 10 5 12 6 6 7 7 8 5 9 4 10 19 11 3 12
REMARK SMILES IDX 20 13 2 14 1 15 15 16 17 17 16 18 11 19 13 21
REMARK H PARENT 11 20 13 22
ROOT
ATOM      1  C   UNL     1       4.703  -9.234  -0.270  1.00  0.00     0.033 A 
ATOM      2  C   UNL     1       4.608  -7.967  -0.798  1.00  0.00     0.102 A 
ATOM      3  C   UNL     1       3.939  -9.659   0.791  1.00  0.00     0.063 A 
ATOM      4  C   UNL     1       3.696  -7.076  -0.233  1.00  0.00     0.315 A 
ATOM      5  C   UNL     1       3.027  -8.768   1.357  1.00  0.00     0.165 A 
ATOM      6  C   UNL     1       2.905  -7.476   0.844  1.00  0.00     0.237 A 
ENDROOT
BRANCH   1   7
ATOM      7  C   UNL     1       5.680 -10.189  -0.874  1.00  0.00     0.193 C 
ATOM      8  O   UNL     1       6.884  -9.984  -0.658  1.00  0.00    -0.289 OA
BRANCH   7   9
ATOM      9  C   UNL     1       5.264 -11.320  -1.687  1.00  0.00     0.023 A 
ATOM     10  C   UNL     1       5.667 -12.611  -1.344  1.00  0.00     0.012 A 
ATOM     11  C   UNL     1       4.461 -11.115  -2.809  1.00  0.00     0.012 A 
ATOM     12  C   UNL     1       5.267 -13.696  -2.124  1.00  0.00     0.004 A 
ATOM     13  C   UNL     1       4.061 -12.201  -3.589  1.00  0.00     0.004 A 
ATOM     14  C   UNL     1       4.464 -13.491  -3.247  1.00  0.00    -0.051 A 
ATOM     15  C   UNL     1       4.038 -14.652  -4.080  1.00  0.00     0.044 C 
ENDBRANCH   7   9
ENDBRANCH   1   7
BRANCH   4  16
ATOM     16  N   UNL     1       3.586  -5.763  -0.769  1.00  0.00     0.066 N 
ATOM     17  O   UNL     1       3.547  -4.788   0.020  1.00  0.00    -0.258 OA
ATOM     18  O   UNL     1       3.532  -5.619  -2.012  1.00  0.00    -0.258 OA
ENDBRANCH   4  16
BRANCH   5  19
ATOM     19  O   UNL     1       2.261  -9.172   2.408  1.00  0.00    -0.504 OA
ATOM     20  H   UNL     1       2.817  -9.263   3.200  1.00  0.00     0.293 HD
ENDBRANCH   5  19
BRANCH   6  21
ATOM     21  O   UNL     1       2.009  -6.613   1.405  1.00  0.00    -0.500 OA
ATOM     22  H   UNL     1       1.653  -6.998   2.221  1.00  0.00     0.294 HD
ENDBRANCH   6  21
TORSDOF 5
ENDMDL
MODEL 9
REMARK VINA RESULT:    -4.035      1.456      2.849
REMARK INTER + INTRA:          -5.791
REMARK INTER:                  -5.489
REMARK INTRA:                  -0.302
REMARK UNBOUND:                -0.812
REMARK SMILES Cc1ccc(C(=O)c2cc(O)c(O)c([N+](=O)[O-])c2)cc1
REMARK SMILES IDX 8 1 18 2 9 3 14 4 10 5 12 6 6 7 7 8 5 9 4 10 19 11 3 12
REMARK SMILES IDX 20 13 2 14 1 15 15 16 17 17 16 18 11 19 13 21
REMARK H PARENT 11 20 13 22
ROOT
ATOM      1  C   UNL     1       4.796  -6.867  -0.429  1.00  0.00     0.033 A 
ATOM      2  C   UNL     1       5.276  -5.637  -0.816  1.00  0.00     0.102 A 
ATOM      3  C   UNL     1       3.483  -7.080  -0.083  1.00  0.00     0.063 A 
ATOM      4  C   UNL     1       4.391  -4.560  -0.861  1.00  0.00     0.315 A 
ATOM      5  C   UNL     1       2.598  -6.003  -0.127  1.00  0.00     0.165 A 
ATOM      6  C   UNL     1       3.052  -4.742  -0.517  1.00  0.00     0.237 A 
ENDROOT
BRANCH   1   7
ATOM      7  C   UNL     1       5.744  -8.021  -0.380  1.00  0.00     0.193 C 
ATOM      8  O   UNL     1       6.839  -7.835   0.171  1.00  0.00    -0.289 OA
BRANCH   7   9
ATOM      9  C   UNL     1       5.421  -9.320  -0.948  1.00  0.00     0.023 A 
ATOM     10  C   UNL     1       6.264 -10.409  -0.724  1.00  0.00     0.012 A 
ATOM     11  C   UNL     1       4.268  -9.477  -1.717  1.00  0.00     0.012 A 
ATOM     12  C   UNL     1       5.953 -11.654  -1.269  1.00  0.00     0.004 A 
ATOM     13  C   UNL     1       3.957 -10.724  -2.262  1.00  0.00     0.004 A 
ATOM     14  C   UNL     1       4.799 -11.812  -2.038  1.00  0.00    -0.051 A 
ATOM     15  C   UNL     1       4.469 -13.144  -2.621  1.00  0.00     0.044 C 
ENDBRANCH   7   9
ENDBRANCH   1   7
BRANCH   4  16
ATOM     16  N   UNL     1       4.873  -3.283  -1.260  1.00  0.00     0.066 N 
ATOM     17  O   UNL     1       5.606  -3.202  -2.275  1.00  0.00    -0.258 OA
ATOM     18  O   UNL     1       4.550  -2.276  -0.588  1.00  0.00    -0.258 OA
ENDBRANCH   4  16
BRANCH   5  19
ATOM     19  O   UNL     1       1.293  -6.196   0.212  1.00  0.00    -0.504 OA
ATOM     20  H   UNL     1       0.767  -5.428  -0.067  1.00  0.00     0.293 HD
ENDBRANCH   5  19
BRANCH   6  21
ATOM     21  O   UNL     1       2.177  -3.696  -0.557  1.00  0.00    -0.500 OA
ATOM     22  H   UNL     1       2.528  -2.957  -0.037  1.00  0.00     0.294 HD
ENDBRANCH   6  21
TORSDOF 5
ENDMDL
