MODEL 1
REMARK VINA RESULT:    -6.974      0.000      0.000
REMARK INTER + INTRA:          -8.763
REMARK INTER:                  -8.197
REMARK INTRA:                  -0.567
REMARK UNBOUND:                -0.567
REMARK SMILES O=C(O)c1cc(-c2ccc(F)cc2F)ccc1O
REMARK SMILES IDX 6 1 5 2 15 3 4 4 17 5 16 6 7 7 13 8 12 9 8 10 10 11 9 12
REMARK SMILES IDX 14 13 11 14 2 15 1 16 3 17 18 19
REMARK H PARENT 3 18 18 20
ROOT
ATOM      1  C   UNL     1       3.749   0.340  -8.071  1.00  0.00    -0.014 A 
ATOM      2  C   UNL     1       4.360  -0.697  -7.368  1.00  0.00     0.028 A 
ATOM      3  C   UNL     1       2.784   1.131  -7.448  1.00  0.00     0.013 A 
ATOM      4  C   UNL     1       4.007  -0.944  -6.040  1.00  0.00     0.102 A 
ATOM      5  C   UNL     1       3.042  -0.152  -5.417  1.00  0.00     0.130 A 
ATOM      6  C   UNL     1       2.430   0.886  -6.121  1.00  0.00     0.048 A 
ENDROOT
BRANCH   1   7
ATOM      7  C   UNL     1       4.114   0.596  -9.448  1.00  0.00     0.018 A 
ATOM      8  C   UNL     1       3.123   0.823 -10.404  1.00  0.00     0.133 A 
ATOM      9  C   UNL     1       3.480   1.068 -11.730  1.00  0.00     0.079 A 
ATOM     10  C   UNL     1       5.458   0.616  -9.817  1.00  0.00     0.015 A 
ATOM     11  C   UNL     1       4.824   1.088 -12.100  1.00  0.00     0.126 A 
ATOM     12  C   UNL     1       5.813   0.862 -11.143  1.00  0.00     0.040 A 
ATOM     13  F   UNL     1       1.826   0.804 -10.066  1.00  0.00    -0.206 F 
ATOM     14  F   UNL     1       5.167   1.324 -13.373  1.00  0.00    -0.207 F 
ENDBRANCH   1   7
BRANCH   4  15
ATOM     15  C   UNL     1       4.658  -2.031  -5.323  1.00  0.00     0.339 C 
ATOM     16  O   UNL     1       4.077  -2.948  -4.737  1.00  0.00    -0.246 OA
BRANCH  15  17
ATOM     17  O   UNL     1       6.015  -1.940  -5.363  1.00  0.00    -0.478 OA
ATOM     18  H   UNL     1       6.399  -2.515  -6.059  1.00  0.00     0.297 HD
ENDBRANCH  15  17
ENDBRANCH   4  15
BRANCH   5  19
ATOM     19  O   UNL     1       2.684  -0.376  -4.121  1.00  0.00    -0.507 OA
ATOM     20  H   UNL     1       2.582  -1.334  -3.981  1.00  0.00     0.293 HD
ENDBRANCH   5  19
TORSDOF 4
ENDMDL
MODEL 2
REMARK VINA RESULT:    -6.942      1.696      3.165
REMARK INTER + INTRA:          -8.727
REMARK INTER:                  -8.124
REMARK INTRA:                  -0.603
REMARK UNBOUND:                -0.567
REMARK SMILES O=C(O)c1cc(-c2ccc(F)cc2F)ccc1O
REMARK SMILES IDX 6 1 5 2 15 3 4 4 17 5 16 6 7 7 13 8 12 9 8 10 10 11 9 12
REMARK SMILES IDX 14 13 11 14 2 15 1 16 3 17 18 19
REMARK H PARENT 3 18 18 20
ROOT
ATOM      1  C   UNL     1       3.802   0.338  -8.115  1.00  0.00    -0.014 A 
ATOM      2  C   UNL     1       2.818   1.150  -7.552  1.00  0.00     0.028 A 
ATOM      3  C   UNL     1       4.365  -0.695  -7.368  1.00  0.00     0.013 A 
ATOM      4  C   UNL     1       2.397   0.928  -6.240  1.00  0.00     0.102 A 
ATOM      5  C   UNL     1       2.961  -0.105  -5.493  1.00  0.00     0.130 A 
ATOM      6  C   UNL     1       3.945  -0.918  -6.057  1.00  0.00     0.048 A 
ENDROOT
BRANCH   1   7
ATOM      7  C   UNL     1       4.240   0.569  -9.475  1.00  0.00     0.018 A 
ATOM      8  C   UNL     1       5.601   0.576  -9.781  1.00  0.00     0.133 A 
ATOM      9  C   UNL     1       6.019   0.798 -11.094  1.00  0.00     0.079 A 
ATOM     10  C   UNL     1       3.297   0.782 -10.481  1.00  0.00     0.015 A 
ATOM     11  C   UNL     1       5.077   1.013 -12.099  1.00  0.00     0.126 A 
ATOM     12  C   UNL     1       3.716   1.004 -11.792  1.00  0.00     0.040 A 
ATOM     13  F   UNL     1       6.519   0.375  -8.826  1.00  0.00    -0.206 F 
ATOM     14  F   UNL     1       5.477   1.226 -13.359  1.00  0.00    -0.207 F 
ENDBRANCH   1   7
BRANCH   4  15
ATOM     15  C   UNL     1       1.368   1.787  -5.670  1.00  0.00     0.339 C 
ATOM     16  O   UNL     1       1.432   2.346  -4.573  1.00  0.00    -0.246 OA
BRANCH  15  17
ATOM     17  O   UNL     1       0.291   1.921  -6.492  1.00  0.00    -0.478 OA
ATOM     18  H   UNL     1       0.080   1.083  -6.956  1.00  0.00     0.297 HD
ENDBRANCH  15  17
ENDBRANCH   4  15
BRANCH   5  19
ATOM     19  O   UNL     1       2.563  -0.339  -4.210  1.00  0.00    -0.507 OA
ATOM     20  H   UNL     1       2.929   0.354  -3.633  1.00  0.00     0.293 HD
ENDBRANCH   5  19
TORSDOF 4
ENDMDL
MODEL 3
REMARK VINA RESULT:    -6.926      1.288      2.746
REMARK INTER + INTRA:          -8.708
REMARK INTER:                  -8.013
REMARK INTRA:                  -0.695
REMARK UNBOUND:                -0.567
REMARK SMILES O=C(O)c1cc(-c2ccc(F)cc2F)ccc1O
REMARK SMILES IDX 6 1 5 2 15 3 4 4 17 5 16 6 7 7 13 8 12 9 8 10 10 11 9 12
REMARK SMILES IDX 14 13 11 14 2 15 1 16 3 17 18 19
REMARK H PARENT 3 18 18 20
ROOT
ATOM      1  C   UNL     1       3.677   0.355  -8.155  1.00  0.00    -0.014 A 
ATOM      2  C   UNL     1       2.762   1.223  -7.560  1.00  0.00     0.028 A 
ATOM      3  C   UNL     1       4.185  -0.725  -7.434  1.00  0.00     0.013 A 
ATOM      4  C   UNL     1       2.354   1.010  -6.243  1.00  0.00     0.102 A 
ATOM      5  C   UNL     1       2.862  -0.070  -5.522  1.00  0.00     0.130 A 
ATOM      6  C   UNL     1       3.778  -0.938  -6.117  1.00  0.00     0.048 A 
ENDROOT
BRANCH   1   7
ATOM      7  C   UNL     1       4.102   0.576  -9.521  1.00  0.00     0.018 A 
ATOM      8  C   UNL     1       3.156   0.809 -10.520  1.00  0.00     0.133 A 
ATOM      9  C   UNL     1       3.569   1.021 -11.835  1.00  0.00     0.079 A 
ATOM     10  C   UNL     1       5.460   0.555  -9.838  1.00  0.00     0.015 A 
ATOM     11  C   UNL     1       4.927   1.000 -12.152  1.00  0.00     0.126 A 
ATOM     12  C   UNL     1       5.872   0.767 -11.152  1.00  0.00     0.040 A 
ATOM     13  F   UNL     1       1.846   0.829 -10.233  1.00  0.00    -0.206 F 
ATOM     14  F   UNL     1       5.325   1.203 -13.414  1.00  0.00    -0.207 F 
ENDBRANCH   1   7
BRANCH   4  15
ATOM     15  C   UNL     1       1.396   1.927  -5.640  1.00  0.00     0.339 C 
ATOM     16  O   UNL     1       1.441   2.344  -4.480  1.00  0.00    -0.246 OA
BRANCH  15  17
ATOM     17  O   UNL     1       0.414   2.296  -6.507  1.00  0.00    -0.478 OA
ATOM     18  H   UNL     1       0.099   3.208  -6.335  1.00  0.00     0.297 HD
ENDBRANCH  15  17
ENDBRANCH   4  15
BRANCH   5  19
ATOM     19  O   UNL     1       2.476  -0.295  -4.234  1.00  0.00    -0.507 OA
ATOM     20  H   UNL     1       3.251  -0.216  -3.652  1.00  0.00     0.293 HD
ENDBRANCH   5  19
TORSDOF 4
ENDMDL
MODEL 4
REMARK VINA RESULT:    -5.556      4.103      6.346
REMARK INTER + INTRA:          -7.098
REMARK INTER:                  -6.027
REMARK INTRA:                  -1.071
REMARK UNBOUND:                -0.567
REMARK SMILES O=C(O)c1cc(-c2ccc(F)cc2F)ccc1O
REMARK SMILES IDX 6 1 5 2 15 3 4 4 17 5 16 6 7 7 13 8 12 9 8 10 10 11 9 12
REMARK SMILES IDX 14 13 11 14 2 15 1 16 3 17 18 19
REMARK H PARENT 3 18 18 20
ROOT
ATOM      1  C   UNL     1       4.477   0.867 -10.749  1.00  0.00    -0.014 A 
ATOM      2  C   UNL     1       4.803  -0.190 -11.598  1.00  0.00     0.028 A 
ATOM      3  C   UNL     1       4.550   2.181 -11.211  1.00  0.00     0.013 A 
ATOM      4  C   UNL     1       5.203   0.067 -12.909  1.00  0.00     0.102 A 
ATOM      5  C   UNL     1       5.277   1.381 -13.371  1.00  0.00     0.130 A 
ATOM      6  C   UNL     1       4.950   2.439 -12.521  1.00  0.00     0.048 A 
ENDROOT
BRANCH   1   7
ATOM      7  C   UNL     1       4.063   0.602  -9.388  1.00  0.00     0.018 A 
ATOM      8  C   UNL     1       2.706   0.533  -9.069  1.00  0.00     0.133 A 
ATOM      9  C   UNL     1       2.311   0.277  -7.755  1.00  0.00     0.079 A 
ATOM     10  C   UNL     1       5.023   0.414  -8.394  1.00  0.00     0.015 A 
ATOM     11  C   UNL     1       3.272   0.090  -6.762  1.00  0.00     0.126 A 
ATOM     12  C   UNL     1       4.628   0.158  -7.082  1.00  0.00     0.040 A 
ATOM     13  F   UNL     1       1.770   0.714 -10.011  1.00  0.00    -0.206 F 
ATOM     14  F   UNL     1       2.894  -0.155  -5.501  1.00  0.00    -0.207 F 
ENDBRANCH   1   7
BRANCH   4  15
ATOM     15  C   UNL     1       5.540  -1.051 -13.780  1.00  0.00     0.339 C 
ATOM     16  O   UNL     1       5.620  -0.998 -15.010  1.00  0.00    -0.246 OA
BRANCH  15  17
ATOM     17  O   UNL     1       5.766  -2.199 -13.086  1.00  0.00    -0.478 OA
ATOM     18  H   UNL     1       6.717  -2.319 -12.880  1.00  0.00     0.297 HD
ENDBRANCH  15  17
ENDBRANCH   4  15
BRANCH   5  19
ATOM     19  O   UNL     1       5.665   1.653 -14.649  1.00  0.00    -0.507 OA
ATOM     20  H   UNL     1       6.043   0.848 -15.044  1.00  0.00     0.293 HD
ENDBRANCH   5  19
TORSDOF 4
ENDMDL
MODEL 5
REMARK VINA RESULT:    -5.525      4.428      6.752
REMARK INTER + INTRA:          -7.061
REMARK INTER:                  -5.997
REMARK INTRA:                  -1.064
REMARK UNBOUND:                -0.567
REMARK SMILES O=C(O)c1cc(-c2ccc(F)cc2F)ccc1O
REMARK SMILES IDX 6 1 5 2 15 3 4 4 17 5 16 6 7 7 13 8 12 9 8 10 10 11 9 12
REMARK SMILES IDX 14 13 11 14 2 15 1 16 3 17 18 19
REMARK H PARENT 3 18 18 20
ROOT
ATOM      1  C   UNL     1       4.454   0.864 -10.723  1.00  0.00    -0.014 A 
ATOM      2  C   UNL     1       4.497   2.168 -11.214  1.00  0.00     0.028 A 
ATOM      3  C   UNL     1       4.824  -0.202 -11.542  1.00  0.00     0.013 A 
ATOM      4  C   UNL     1       4.911   2.407 -12.525  1.00  0.00     0.102 A 
ATOM      5  C   UNL     1       5.281   1.340 -13.344  1.00  0.00     0.130 A 
ATOM      6  C   UNL     1       5.238   0.035 -12.852  1.00  0.00     0.048 A 
ENDROOT
BRANCH   1   7
ATOM      7  C   UNL     1       4.024   0.616  -9.363  1.00  0.00     0.018 A 
ATOM      8  C   UNL     1       2.664   0.547  -9.060  1.00  0.00     0.133 A 
ATOM      9  C   UNL     1       2.254   0.308  -7.748  1.00  0.00     0.079 A 
ATOM     10  C   UNL     1       4.973   0.444  -8.356  1.00  0.00     0.015 A 
ATOM     11  C   UNL     1       3.203   0.137  -6.741  1.00  0.00     0.126 A 
ATOM     12  C   UNL     1       4.562   0.205  -7.045  1.00  0.00     0.040 A 
ATOM     13  F   UNL     1       1.739   0.713 -10.017  1.00  0.00    -0.206 F 
ATOM     14  F   UNL     1       2.810  -0.092  -5.481  1.00  0.00    -0.207 F 
ENDBRANCH   1   7
BRANCH   4  15
ATOM     15  C   UNL     1       4.949   3.776 -13.019  1.00  0.00     0.339 C 
ATOM     16  O   UNL     1       4.980   4.105 -14.207  1.00  0.00    -0.246 OA
BRANCH  15  17
ATOM     17  O   UNL     1       4.947   4.691 -12.012  1.00  0.00    -0.478 OA
ATOM     18  H   UNL     1       5.299   5.558 -12.305  1.00  0.00     0.297 HD
ENDBRANCH  15  17
ENDBRANCH   4  15
BRANCH   5  19
ATOM     19  O   UNL     1       5.688   1.552 -14.628  1.00  0.00    -0.507 OA
ATOM     20  H   UNL     1       5.391   0.809 -15.182  1.00  0.00     0.293 HD
ENDBRANCH   5  19
TORSDOF 4
ENDMDL
MODEL 6
REMARK VINA RESULT:    -5.046      1.986      3.166
REMARK INTER + INTRA:          -6.497
REMARK INTER:                  -5.543
REMARK INTRA:                  -0.955
REMARK UNBOUND:                -0.567
REMARK SMILES O=C(O)c1cc(-c2ccc(F)cc2F)ccc1O
REMARK SMILES IDX 6 1 5 2 15 3 4 4 17 5 16 6 7 7 13 8 12 9 8 10 10 11 9 12
REMARK SMILES IDX 14 13 11 14 2 15 1 16 3 17 18 19
REMARK H PARENT 3 18 18 20
ROOT
ATOM      1  C   UNL     1       4.421   0.598  -9.380  1.00  0.00    -0.014 A 
ATOM      2  C   UNL     1       3.115   0.896  -8.992  1.00  0.00     0.028 A 
ATOM      3  C   UNL     1       5.381   0.288  -8.418  1.00  0.00     0.013 A 
ATOM      4  C   UNL     1       2.769   0.885  -7.640  1.00  0.00     0.102 A 
ATOM      5  C   UNL     1       3.730   0.575  -6.677  1.00  0.00     0.130 A 
ATOM      6  C   UNL     1       5.037   0.276  -7.066  1.00  0.00     0.048 A 
ENDROOT
BRANCH   1   7
ATOM      7  C   UNL     1       4.780   0.610 -10.782  1.00  0.00     0.018 A 
ATOM      8  C   UNL     1       4.784   1.811 -11.493  1.00  0.00     0.133 A 
ATOM      9  C   UNL     1       5.131   1.818 -12.845  1.00  0.00     0.079 A 
ATOM     10  C   UNL     1       5.125  -0.581 -11.421  1.00  0.00     0.015 A 
ATOM     11  C   UNL     1       5.475   0.628 -13.484  1.00  0.00     0.126 A 
ATOM     12  C   UNL     1       5.472  -0.572 -12.771  1.00  0.00     0.040 A 
ATOM     13  F   UNL     1       4.453   2.964 -10.895  1.00  0.00    -0.206 F 
ATOM     14  F   UNL     1       5.808   0.634 -14.781  1.00  0.00    -0.207 F 
ENDBRANCH   1   7
BRANCH   4  15
ATOM     15  C   UNL     1       1.400   1.198  -7.255  1.00  0.00     0.339 C 
ATOM     16  O   UNL     1       1.031   1.503  -6.118  1.00  0.00    -0.246 OA
BRANCH  15  17
ATOM     17  O   UNL     1       0.537   1.123  -8.304  1.00  0.00    -0.478 OA
ATOM     18  H   UNL     1       0.948   0.695  -9.084  1.00  0.00     0.297 HD
ENDBRANCH  15  17
ENDBRANCH   4  15
BRANCH   5  19
ATOM     19  O   UNL     1       3.413   0.558  -5.352  1.00  0.00    -0.507 OA
ATOM     20  H   UNL     1       2.771   1.267  -5.170  1.00  0.00     0.293 HD
ENDBRANCH   5  19
TORSDOF 4
ENDMDL
MODEL 7
REMARK VINA RESULT:    -4.559      8.772     11.143
REMARK INTER + INTRA:          -5.925
REMARK INTER:                  -4.934
REMARK INTRA:                  -0.991
REMARK UNBOUND:                -0.567
REMARK SMILES O=C(O)c1cc(-c2ccc(F)cc2F)ccc1O
REMARK SMILES IDX 6 1 5 2 15 3 4 4 17 5 16 6 7 7 13 8 12 9 8 10 10 11 9 12
REMARK SMILES IDX 14 13 11 14 2 15 1 16 3 17 18 19
REMARK H PARENT 3 18 18 20
ROOT
ATOM      1  C   UNL     1       7.185   6.665 -14.161  1.00  0.00    -0.014 A 
ATOM      2  C   UNL     1       6.667   7.846 -14.689  1.00  0.00     0.028 A 
ATOM      3  C   UNL     1       8.565   6.498 -14.046  1.00  0.00     0.013 A 
ATOM      4  C   UNL     1       7.529   8.863 -15.102  1.00  0.00     0.102 A 
ATOM      5  C   UNL     1       8.909   8.696 -14.988  1.00  0.00     0.130 A 
ATOM      6  C   UNL     1       9.427   7.513 -14.459  1.00  0.00     0.048 A 
ENDROOT
BRANCH   1   7
ATOM      7  C   UNL     1       6.292   5.609 -13.733  1.00  0.00     0.018 A 
ATOM      8  C   UNL     1       5.630   4.826 -14.679  1.00  0.00     0.133 A 
ATOM      9  C   UNL     1       4.769   3.810 -14.262  1.00  0.00     0.079 A 
ATOM     10  C   UNL     1       6.095   5.376 -12.372  1.00  0.00     0.015 A 
ATOM     11  C   UNL     1       4.572   3.577 -12.901  1.00  0.00     0.126 A 
ATOM     12  C   UNL     1       5.235   4.361 -11.956  1.00  0.00     0.040 A 
ATOM     13  F   UNL     1       5.806   5.038 -15.990  1.00  0.00    -0.206 F 
ATOM     14  F   UNL     1       3.746   2.602 -12.500  1.00  0.00    -0.207 F 
ENDBRANCH   1   7
BRANCH   4  15
ATOM     15  C   UNL     1       6.968  10.090 -15.650  1.00  0.00     0.339 C 
ATOM     16  O   UNL     1       5.921  10.625 -15.277  1.00  0.00    -0.246 OA
BRANCH  15  17
ATOM     17  O   UNL     1       7.734  10.610 -16.647  1.00  0.00    -0.478 OA
ATOM     18  H   UNL     1       8.639  10.827 -16.336  1.00  0.00     0.297 HD
ENDBRANCH  15  17
ENDBRANCH   4  15
BRANCH   5  19
ATOM     19  O   UNL     1       9.768   9.677 -15.385  1.00  0.00    -0.507 OA
ATOM     20  H   UNL     1       9.460  10.044 -16.232  1.00  0.00     0.293 HD
ENDBRANCH   5  19
TORSDOF 4
ENDMDL
MODEL 8
REMARK VINA RESULT:    -4.381      5.893      8.316
REMARK INTER + INTRA:          -5.716
REMARK INTER:                  -4.650
REMARK INTRA:                  -1.066
REMARK UNBOUND:                -0.567
REMARK SMILES O=C(O)c1cc(-c2ccc(F)cc2F)ccc1O
REMARK SMILES IDX 6 1 5 2 15 3 4 4 17 5 16 6 7 7 13 8 12 9 8 10 10 11 9 12
REMARK SMILES IDX 14 13 11 14 2 15 1 16 3 17 18 19
REMARK H PARENT 3 18 18 20
ROOT
ATOM      1  C   UNL     1       5.318  -0.853 -13.744  1.00  0.00    -0.014 A 
ATOM      2  C   UNL     1       6.100  -0.238 -14.721  1.00  0.00     0.028 A 
ATOM      3  C   UNL     1       4.834  -2.145 -13.949  1.00  0.00     0.013 A 
ATOM      4  C   UNL     1       6.400  -0.915 -15.903  1.00  0.00     0.102 A 
ATOM      5  C   UNL     1       5.917  -2.207 -16.108  1.00  0.00     0.130 A 
ATOM      6  C   UNL     1       5.133  -2.823 -15.131  1.00  0.00     0.048 A 
ENDROOT
BRANCH   1   7
ATOM      7  C   UNL     1       5.005  -0.150 -12.518  1.00  0.00     0.018 A 
ATOM      8  C   UNL     1       5.923  -0.134 -11.467  1.00  0.00     0.133 A 
ATOM      9  C   UNL     1       5.618   0.545 -10.287  1.00  0.00     0.079 A 
ATOM     10  C   UNL     1       3.784   0.511 -12.389  1.00  0.00     0.015 A 
ATOM     11  C   UNL     1       4.396   1.205 -10.157  1.00  0.00     0.126 A 
ATOM     12  C   UNL     1       3.480   1.189 -11.209  1.00  0.00     0.040 A 
ATOM     13  F   UNL     1       7.100  -0.766 -11.574  1.00  0.00    -0.206 F 
ATOM     14  F   UNL     1       4.103   1.856  -9.025  1.00  0.00    -0.207 F 
ENDBRANCH   1   7
BRANCH   4  15
ATOM     15  C   UNL     1       7.220  -0.256 -16.911  1.00  0.00     0.339 C 
ATOM     16  O   UNL     1       7.366  -0.639 -18.074  1.00  0.00    -0.246 OA
BRANCH  15  17
ATOM     17  O   UNL     1       7.830   0.862 -16.432  1.00  0.00    -0.478 OA
ATOM     18  H   UNL     1       8.556   1.161 -17.018  1.00  0.00     0.297 HD
ENDBRANCH  15  17
ENDBRANCH   4  15
BRANCH   5  19
ATOM     19  O   UNL     1       6.199  -2.886 -17.256  1.00  0.00    -0.507 OA
ATOM     20  H   UNL     1       6.099  -2.284 -18.014  1.00  0.00     0.293 HD
ENDBRANCH   5  19
TORSDOF 4
ENDMDL
MODEL 9
REMARK VINA RESULT:    -4.330      6.167      8.406
REMARK INTER + INTRA:          -5.657
REMARK INTER:                  -4.591
REMARK INTRA:                  -1.066
REMARK UNBOUND:                -0.567
REMARK SMILES O=C(O)c1cc(-c2ccc(F)cc2F)ccc1O
REMARK SMILES IDX 6 1 5 2 15 3 4 4 17 5 16 6 7 7 13 8 12 9 8 10 10 11 9 12
REMARK SMILES IDX 14 13 11 14 2 15 1 16 3 17 18 19
REMARK H PARENT 3 18 18 20
ROOT
ATOM      1  C   UNL     1       5.274   3.453 -12.955  1.00  0.00    -0.014 A 
ATOM      2  C   UNL     1       5.187   3.267 -14.334  1.00  0.00     0.028 A 
ATOM      3  C   UNL     1       5.659   4.691 -12.441  1.00  0.00     0.013 A 
ATOM      4  C   UNL     1       5.486   4.319 -15.200  1.00  0.00     0.102 A 
ATOM      5  C   UNL     1       5.871   5.557 -14.686  1.00  0.00     0.130 A 
ATOM      6  C   UNL     1       5.957   5.743 -13.306  1.00  0.00     0.048 A 
ENDROOT
BRANCH   1   7
ATOM      7  C   UNL     1       4.966   2.362 -12.056  1.00  0.00     0.018 A 
ATOM      8  C   UNL     1       3.640   2.087 -11.716  1.00  0.00     0.133 A 
ATOM      9  C   UNL     1       3.348   1.034 -10.849  1.00  0.00     0.079 A 
ATOM     10  C   UNL     1       5.996   1.584 -11.529  1.00  0.00     0.015 A 
ATOM     11  C   UNL     1       4.379   0.257 -10.322  1.00  0.00     0.126 A 
ATOM     12  C   UNL     1       5.703   0.532 -10.663  1.00  0.00     0.040 A 
ATOM     13  F   UNL     1       2.638   2.826 -12.212  1.00  0.00    -0.206 F 
ATOM     14  F   UNL     1       4.098  -0.754  -9.489  1.00  0.00    -0.207 F 
ENDBRANCH   1   7
BRANCH   4  15
ATOM     15  C   UNL     1       5.389   4.105 -16.637  1.00  0.00     0.339 C 
ATOM     16  O   UNL     1       5.901   4.820 -17.502  1.00  0.00    -0.246 OA
BRANCH  15  17
ATOM     17  O   UNL     1       4.656   3.001 -16.948  1.00  0.00    -0.478 OA
ATOM     18  H   UNL     1       5.146   2.392 -17.540  1.00  0.00     0.297 HD
ENDBRANCH  15  17
ENDBRANCH   4  15
BRANCH   5  19
ATOM     19  O   UNL     1       6.166   6.598 -15.515  1.00  0.00    -0.507 OA
ATOM     20  H   UNL     1       5.397   7.193 -15.565  1.00  0.00     0.293 HD
ENDBRANCH   5  19
TORSDOF 4
ENDMDL
