MODEL 1
REMARK VINA RESULT:    -5.317      0.000      0.000
REMARK INTER + INTRA:          -7.319
REMARK INTER:                  -6.560
REMARK INTRA:                  -0.759
REMARK UNBOUND:                -0.759
REMARK SMILES Cc1ccc(C(=O)c2cc(O)c(O)c([N+](=O)[O-])c2)cc1
REMARK SMILES IDX 8 1 18 2 9 3 14 4 10 5 12 6 6 7 7 8 5 9 4 10 19 11 3 12
REMARK SMILES IDX 20 13 2 14 1 15 15 16 17 17 16 18 11 19 13 21
REMARK H PARENT 11 20 13 22
ROOT
ATOM      1  C   UNL     1       3.667  -0.600  -8.102  1.00  0.00     0.033 A 
ATOM      2  C   UNL     1       2.847   0.441  -7.735  1.00  0.00     0.102 A 
ATOM      3  C   UNL     1       4.147  -1.525  -7.206  1.00  0.00     0.063 A 
ATOM      4  C   UNL     1       2.485   0.563  -6.393  1.00  0.00     0.315 A 
ATOM      5  C   UNL     1       3.787  -1.402  -5.863  1.00  0.00     0.165 A 
ATOM      6  C   UNL     1       2.955  -0.358  -5.457  1.00  0.00     0.237 A 
ENDROOT
BRANCH   1   7
ATOM      7  C   UNL     1       4.055  -0.731  -9.539  1.00  0.00     0.193 C 
ATOM      8  O   UNL     1       4.184  -1.879  -9.991  1.00  0.00    -0.289 OA
BRANCH   7   9
ATOM      9  C   UNL     1       4.277   0.423 -10.395  1.00  0.00     0.023 A 
ATOM     10  C   UNL     1       5.570   0.910 -10.588  1.00  0.00     0.012 A 
ATOM     11  C   UNL     1       3.197   1.043 -11.024  1.00  0.00     0.012 A 
ATOM     12  C   UNL     1       5.782   2.017 -11.410  1.00  0.00     0.004 A 
ATOM     13  C   UNL     1       3.410   2.150 -11.846  1.00  0.00     0.004 A 
ATOM     14  C   UNL     1       4.703   2.637 -12.039  1.00  0.00    -0.051 A 
ATOM     15  C   UNL     1       4.931   3.821 -12.916  1.00  0.00     0.044 C 
ENDBRANCH   7   9
ENDBRANCH   1   7
BRANCH   4  16
ATOM     16  N   UNL     1       1.637   1.634  -5.998  1.00  0.00     0.066 N 
ATOM     17  O   UNL     1       0.798   2.077  -6.818  1.00  0.00    -0.258 OA
ATOM     18  O   UNL     1       1.753   2.103  -4.842  1.00  0.00    -0.258 OA
ENDBRANCH   4  16
BRANCH   5  19
ATOM     19  O   UNL     1       4.252  -2.310  -4.960  1.00  0.00    -0.504 OA
ATOM     20  H   UNL     1       3.863  -3.181  -5.144  1.00  0.00     0.293 HD
ENDBRANCH   5  19
BRANCH   6  21
ATOM     21  O   UNL     1       2.608  -0.249  -4.142  1.00  0.00    -0.500 OA
ATOM     22  H   UNL     1       1.989   0.489  -4.028  1.00  0.00     0.294 HD
ENDBRANCH   6  21
TORSDOF 5
ENDMDL
MODEL 2
REMARK VINA RESULT:    -5.291      2.014      3.526
REMARK INTER + INTRA:          -7.288
REMARK INTER:                  -6.506
REMARK INTRA:                  -0.782
REMARK UNBOUND:                -0.759
REMARK SMILES Cc1ccc(C(=O)c2cc(O)c(O)c([N+](=O)[O-])c2)cc1
REMARK SMILES IDX 8 1 18 2 9 3 14 4 10 5 12 6 6 7 7 8 5 9 4 10 19 11 3 12
REMARK SMILES IDX 20 13 2 14 1 15 15 16 17 17 16 18 11 19 13 21
REMARK H PARENT 11 20 13 22
ROOT
ATOM      1  C   UNL     1       3.777   1.183  -7.767  1.00  0.00     0.033 A 
ATOM      2  C   UNL     1       4.451   0.067  -7.330  1.00  0.00     0.102 A 
ATOM      3  C   UNL     1       2.722   1.736  -7.080  1.00  0.00     0.063 A 
ATOM      4  C   UNL     1       4.047  -0.530  -6.136  1.00  0.00     0.315 A 
ATOM      5  C   UNL     1       2.318   1.138  -5.886  1.00  0.00     0.165 A 
ATOM      6  C   UNL     1       2.981   0.005  -5.414  1.00  0.00     0.237 A 
ENDROOT
BRANCH   1   7
ATOM      7  C   UNL     1       4.209   1.823  -9.047  1.00  0.00     0.193 C 
ATOM      8  O   UNL     1       4.262   3.062  -9.073  1.00  0.00    -0.289 OA
BRANCH   7   9
ATOM      9  C   UNL     1       4.559   1.049 -10.227  1.00  0.00     0.023 A 
ATOM     10  C   UNL     1       3.600   0.805 -11.211  1.00  0.00     0.012 A 
ATOM     11  C   UNL     1       5.852   0.550 -10.375  1.00  0.00     0.012 A 
ATOM     12  C   UNL     1       3.936   0.063 -12.342  1.00  0.00     0.004 A 
ATOM     13  C   UNL     1       6.189  -0.193 -11.507  1.00  0.00     0.004 A 
ATOM     14  C   UNL     1       5.231  -0.436 -12.491  1.00  0.00    -0.051 A 
ATOM     15  C   UNL     1       5.589  -1.231 -13.700  1.00  0.00     0.044 C 
ENDBRANCH   7   9
ENDBRANCH   1   7
BRANCH   4  16
ATOM     16  N   UNL     1       4.735  -1.685  -5.671  1.00  0.00     0.066 N 
ATOM     17  O   UNL     1       4.082  -2.588  -5.094  1.00  0.00    -0.258 OA
ATOM     18  O   UNL     1       5.972  -1.767  -5.851  1.00  0.00    -0.258 OA
ENDBRANCH   4  16
BRANCH   5  19
ATOM     19  O   UNL     1       1.275   1.672  -5.191  1.00  0.00    -0.504 OA
ATOM     20  H   UNL     1       1.147   1.176  -4.365  1.00  0.00     0.293 HD
ENDBRANCH   5  19
BRANCH   6  21
ATOM     21  O   UNL     1       2.577  -0.571  -4.244  1.00  0.00    -0.500 OA
ATOM     22  H   UNL     1       2.670   0.066  -3.518  1.00  0.00     0.294 HD
ENDBRANCH   6  21
TORSDOF 5
ENDMDL
MODEL 3
REMARK VINA RESULT:    -4.881      3.667      6.561
REMARK INTER + INTRA:          -6.781
REMARK INTER:                  -5.866
REMARK INTRA:                  -0.915
REMARK UNBOUND:                -0.759
REMARK SMILES Cc1ccc(C(=O)c2cc(O)c(O)c([N+](=O)[O-])c2)cc1
REMARK SMILES IDX 8 1 18 2 9 3 14 4 10 5 12 6 6 7 7 8 5 9 4 10 19 11 3 12
REMARK SMILES IDX 20 13 2 14 1 15 15 16 17 17 16 18 11 19 13 21
REMARK H PARENT 11 20 13 22
ROOT
ATOM      1  C   UNL     1       5.445   0.548 -10.795  1.00  0.00     0.033 A 
ATOM      2  C   UNL     1       5.221   1.774 -11.378  1.00  0.00     0.102 A 
ATOM      3  C   UNL     1       5.696  -0.591 -11.524  1.00  0.00     0.063 A 
ATOM      4  C   UNL     1       5.252   1.866 -12.769  1.00  0.00     0.315 A 
ATOM      5  C   UNL     1       5.725  -0.498 -12.916  1.00  0.00     0.165 A 
ATOM      6  C   UNL     1       5.504   0.731 -13.539  1.00  0.00     0.237 A 
ENDROOT
BRANCH   1   7
ATOM      7  C   UNL     1       5.412   0.448  -9.305  1.00  0.00     0.193 C 
ATOM      8  O   UNL     1       6.432   0.023  -8.740  1.00  0.00    -0.289 OA
BRANCH   7   9
ATOM      9  C   UNL     1       4.246   0.828  -8.523  1.00  0.00     0.023 A 
ATOM     10  C   UNL     1       2.968   0.484  -8.965  1.00  0.00     0.012 A 
ATOM     11  C   UNL     1       4.405   1.535  -7.332  1.00  0.00     0.012 A 
ATOM     12  C   UNL     1       1.850   0.848  -8.215  1.00  0.00     0.004 A 
ATOM     13  C   UNL     1       3.286   1.900  -6.581  1.00  0.00     0.004 A 
ATOM     14  C   UNL     1       2.009   1.556  -7.023  1.00  0.00    -0.051 A 
ATOM     15  C   UNL     1       0.813   1.946  -6.223  1.00  0.00     0.044 C 
ENDBRANCH   7   9
ENDBRANCH   1   7
BRANCH   4  16
ATOM     16  N   UNL     1       5.023   3.127 -13.386  1.00  0.00     0.066 N 
ATOM     17  O   UNL     1       4.266   3.951 -12.818  1.00  0.00    -0.258 OA
ATOM     18  O   UNL     1       5.585   3.378 -14.477  1.00  0.00    -0.258 OA
ENDBRANCH   4  16
BRANCH   5  19
ATOM     19  O   UNL     1       5.973  -1.616 -13.655  1.00  0.00    -0.504 OA
ATOM     20  H   UNL     1       6.930  -1.783 -13.681  1.00  0.00     0.293 HD
ENDBRANCH   5  19
BRANCH   6  21
ATOM     21  O   UNL     1       5.536   0.809 -14.901  1.00  0.00    -0.500 OA
ATOM     22  H   UNL     1       5.580   1.738 -15.173  1.00  0.00     0.294 HD
ENDBRANCH   6  21
TORSDOF 5
ENDMDL
MODEL 4
REMARK VINA RESULT:    -4.860      3.540      7.130
REMARK INTER + INTRA:          -6.756
REMARK INTER:                  -5.809
REMARK INTRA:                  -0.947
REMARK UNBOUND:                -0.759
REMARK SMILES Cc1ccc(C(=O)c2cc(O)c(O)c([N+](=O)[O-])c2)cc1
REMARK SMILES IDX 8 1 18 2 9 3 14 4 10 5 12 6 6 7 7 8 5 9 4 10 19 11 3 12
REMARK SMILES IDX 20 13 2 14 1 15 15 16 17 17 16 18 11 19 13 21
REMARK H PARENT 11 20 13 22
ROOT
ATOM      1  C   UNL     1       3.849   1.115 -11.197  1.00  0.00     0.033 A 
ATOM      2  C   UNL     1       4.413   0.084 -11.913  1.00  0.00     0.102 A 
ATOM      3  C   UNL     1       3.945   2.431 -11.581  1.00  0.00     0.063 A 
ATOM      4  C   UNL     1       5.113   0.389 -13.080  1.00  0.00     0.315 A 
ATOM      5  C   UNL     1       4.645   2.736 -12.749  1.00  0.00     0.165 A 
ATOM      6  C   UNL     1       5.229   1.714 -13.499  1.00  0.00     0.237 A 
ENDROOT
BRANCH   1   7
ATOM      7  C   UNL     1       3.099   0.789  -9.946  1.00  0.00     0.193 C 
ATOM      8  O   UNL     1       1.922   1.173  -9.872  1.00  0.00    -0.289 OA
BRANCH   7   9
ATOM      9  C   UNL     1       3.701   0.052  -8.846  1.00  0.00     0.023 A 
ATOM     10  C   UNL     1       4.973   0.396  -8.389  1.00  0.00     0.012 A 
ATOM     11  C   UNL     1       3.005  -0.998  -8.247  1.00  0.00     0.012 A 
ATOM     12  C   UNL     1       5.549  -0.310  -7.334  1.00  0.00     0.004 A 
ATOM     13  C   UNL     1       3.582  -1.705  -7.191  1.00  0.00     0.004 A 
ATOM     14  C   UNL     1       4.854  -1.361  -6.735  1.00  0.00    -0.051 A 
ATOM     15  C   UNL     1       5.471  -2.117  -5.608  1.00  0.00     0.044 C 
ENDBRANCH   7   9
ENDBRANCH   1   7
BRANCH   4  16
ATOM     16  N   UNL     1       5.702  -0.665 -13.831  1.00  0.00     0.066 N 
ATOM     17  O   UNL     1       6.133  -1.675 -13.223  1.00  0.00    -0.258 OA
ATOM     18  O   UNL     1       5.773  -0.556 -15.077  1.00  0.00    -0.258 OA
ENDBRANCH   4  16
BRANCH   5  19
ATOM     19  O   UNL     1       4.750   4.035 -13.145  1.00  0.00    -0.504 OA
ATOM     20  H   UNL     1       4.129   4.582 -12.637  1.00  0.00     0.293 HD
ENDBRANCH   5  19
BRANCH   6  21
ATOM     21  O   UNL     1       5.911   2.025 -14.639  1.00  0.00    -0.500 OA
ATOM     22  H   UNL     1       5.439   1.669 -15.408  1.00  0.00     0.294 HD
ENDBRANCH   6  21
TORSDOF 5
ENDMDL
MODEL 5
REMARK VINA RESULT:    -4.833      3.813      7.097
REMARK INTER + INTRA:          -6.722
REMARK INTER:                  -5.731
REMARK INTRA:                  -0.990
REMARK UNBOUND:                -0.759
REMARK SMILES Cc1ccc(C(=O)c2cc(O)c(O)c([N+](=O)[O-])c2)cc1
REMARK SMILES IDX 8 1 18 2 9 3 14 4 10 5 12 6 6 7 7 8 5 9 4 10 19 11 3 12
REMARK SMILES IDX 20 13 2 14 1 15 15 16 17 17 16 18 11 19 13 21
REMARK H PARENT 11 20 13 22
ROOT
ATOM      1  C   UNL     1       5.250   0.877 -11.034  1.00  0.00     0.033 A 
ATOM      2  C   UNL     1       5.401  -0.105 -11.985  1.00  0.00     0.102 A 
ATOM      3  C   UNL     1       5.153   2.212 -11.347  1.00  0.00     0.063 A 
ATOM      4  C   UNL     1       5.456   0.270 -13.327  1.00  0.00     0.315 A 
ATOM      5  C   UNL     1       5.209   2.587 -12.690  1.00  0.00     0.165 A 
ATOM      6  C   UNL     1       5.360   1.616 -13.680  1.00  0.00     0.237 A 
ENDROOT
BRANCH   1   7
ATOM      7  C   UNL     1       5.191   0.476  -9.596  1.00  0.00     0.193 C 
ATOM      8  O   UNL     1       6.131  -0.204  -9.155  1.00  0.00    -0.289 OA
BRANCH   7   9
ATOM      9  C   UNL     1       4.089   0.853  -8.725  1.00  0.00     0.023 A 
ATOM     10  C   UNL     1       2.779   0.528  -9.078  1.00  0.00     0.012 A 
ATOM     11  C   UNL     1       4.341   1.540  -7.538  1.00  0.00     0.012 A 
ATOM     12  C   UNL     1       1.722   0.890  -8.243  1.00  0.00     0.004 A 
ATOM     13  C   UNL     1       3.284   1.903  -6.702  1.00  0.00     0.004 A 
ATOM     14  C   UNL     1       1.974   1.577  -7.055  1.00  0.00    -0.051 A 
ATOM     15  C   UNL     1       0.844   1.965  -6.163  1.00  0.00     0.044 C 
ENDBRANCH   7   9
ENDBRANCH   1   7
BRANCH   4  16
ATOM     16  N   UNL     1       5.611  -0.734 -14.322  1.00  0.00     0.066 N 
ATOM     17  O   UNL     1       6.187  -0.438 -15.397  1.00  0.00    -0.258 OA
ATOM     18  O   UNL     1       5.170  -1.885 -14.096  1.00  0.00    -0.258 OA
ENDBRANCH   4  16
BRANCH   5  19
ATOM     19  O   UNL     1       5.114   3.906 -13.020  1.00  0.00    -0.504 OA
ATOM     20  H   UNL     1       5.809   4.132 -13.660  1.00  0.00     0.293 HD
ENDBRANCH   5  19
BRANCH   6  21
ATOM     21  O   UNL     1       5.413   1.995 -14.990  1.00  0.00    -0.500 OA
ATOM     22  H   UNL     1       4.615   1.691 -15.450  1.00  0.00     0.294 HD
ENDBRANCH   6  21
TORSDOF 5
ENDMDL
MODEL 6
REMARK VINA RESULT:    -4.800      3.903      7.183
REMARK INTER + INTRA:          -6.682
REMARK INTER:                  -6.031
REMARK INTRA:                  -0.651
REMARK UNBOUND:                -0.759
REMARK SMILES Cc1ccc(C(=O)c2cc(O)c(O)c([N+](=O)[O-])c2)cc1
REMARK SMILES IDX 8 1 18 2 9 3 14 4 10 5 12 6 6 7 7 8 5 9 4 10 19 11 3 12
REMARK SMILES IDX 20 13 2 14 1 15 15 16 17 17 16 18 11 19 13 21
REMARK H PARENT 11 20 13 22
ROOT
ATOM      1  C   UNL     1       4.830   0.720 -11.479  1.00  0.00     0.033 A 
ATOM      2  C   UNL     1       5.014   1.686 -12.441  1.00  0.00     0.102 A 
ATOM      3  C   UNL     1       5.014  -0.620 -11.724  1.00  0.00     0.063 A 
ATOM      4  C   UNL     1       5.404   1.289 -13.720  1.00  0.00     0.315 A 
ATOM      5  C   UNL     1       5.404  -1.018 -13.003  1.00  0.00     0.165 A 
ATOM      6  C   UNL     1       5.599  -0.063 -14.001  1.00  0.00     0.237 A 
ENDROOT
BRANCH   1   7
ATOM      7  C   UNL     1       4.412   1.145 -10.109  1.00  0.00     0.193 C 
ATOM      8  O   UNL     1       3.910   2.273  -9.992  1.00  0.00    -0.289 OA
BRANCH   7   9
ATOM      9  C   UNL     1       4.575   0.291  -8.944  1.00  0.00     0.023 A 
ATOM     10  C   UNL     1       3.554  -0.584  -8.572  1.00  0.00     0.012 A 
ATOM     11  C   UNL     1       5.753   0.346  -8.198  1.00  0.00     0.012 A 
ATOM     12  C   UNL     1       3.711  -1.403  -7.454  1.00  0.00     0.004 A 
ATOM     13  C   UNL     1       5.910  -0.474  -7.080  1.00  0.00     0.004 A 
ATOM     14  C   UNL     1       4.889  -1.349  -6.708  1.00  0.00    -0.051 A 
ATOM     15  C   UNL     1       5.056  -2.224  -5.513  1.00  0.00     0.044 C 
ENDBRANCH   7   9
ENDBRANCH   1   7
BRANCH   4  16
ATOM     16  N   UNL     1       5.598   2.277 -14.724  1.00  0.00     0.066 N 
ATOM     17  O   UNL     1       5.494   3.487 -14.412  1.00  0.00    -0.258 OA
ATOM     18  O   UNL     1       5.868   1.909 -15.891  1.00  0.00    -0.258 OA
ENDBRANCH   4  16
BRANCH   5  19
ATOM     19  O   UNL     1       5.591  -2.342 -13.263  1.00  0.00    -0.504 OA
ATOM     20  H   UNL     1       5.157  -2.874 -12.576  1.00  0.00     0.293 HD
ENDBRANCH   5  19
BRANCH   6  21
ATOM     21  O   UNL     1       5.981  -0.464 -15.248  1.00  0.00    -0.500 OA
ATOM     22  H   UNL     1       6.296  -1.381 -15.214  1.00  0.00     0.294 HD
ENDBRANCH   6  21
TORSDOF 5
ENDMDL
MODEL 7
REMARK VINA RESULT:    -4.739      3.701      6.711
REMARK INTER + INTRA:          -6.606
REMARK INTER:                  -5.639
REMARK INTRA:                  -0.967
REMARK UNBOUND:                -0.759
REMARK SMILES Cc1ccc(C(=O)c2cc(O)c(O)c([N+](=O)[O-])c2)cc1
REMARK SMILES IDX 8 1 18 2 9 3 14 4 10 5 12 6 6 7 7 8 5 9 4 10 19 11 3 12
REMARK SMILES IDX 20 13 2 14 1 15 15 16 17 17 16 18 11 19 13 21
REMARK H PARENT 11 20 13 22
ROOT
ATOM      1  C   UNL     1       3.909   1.104 -11.182  1.00  0.00     0.033 A 
ATOM      2  C   UNL     1       4.090   2.415 -11.558  1.00  0.00     0.102 A 
ATOM      3  C   UNL     1       4.386   0.044 -11.917  1.00  0.00     0.063 A 
ATOM      4  C   UNL     1       4.788   2.680 -12.736  1.00  0.00     0.315 A 
ATOM      5  C   UNL     1       5.083   0.310 -13.096  1.00  0.00     0.165 A 
ATOM      6  C   UNL     1       5.285   1.628 -13.505  1.00  0.00     0.237 A 
ENDROOT
BRANCH   1   7
ATOM      7  C   UNL     1       3.162   0.819  -9.920  1.00  0.00     0.193 C 
ATOM      8  O   UNL     1       2.002   1.252  -9.836  1.00  0.00    -0.289 OA
BRANCH   7   9
ATOM      9  C   UNL     1       3.745   0.067  -8.821  1.00  0.00     0.023 A 
ATOM     10  C   UNL     1       5.024   0.381  -8.363  1.00  0.00     0.012 A 
ATOM     11  C   UNL     1       3.025  -0.968  -8.225  1.00  0.00     0.012 A 
ATOM     12  C   UNL     1       5.583  -0.341  -7.308  1.00  0.00     0.004 A 
ATOM     13  C   UNL     1       3.584  -1.691  -7.170  1.00  0.00     0.004 A 
ATOM     14  C   UNL     1       4.863  -1.377  -6.711  1.00  0.00    -0.051 A 
ATOM     15  C   UNL     1       5.462  -2.148  -5.585  1.00  0.00     0.044 C 
ENDBRANCH   7   9
ENDBRANCH   1   7
BRANCH   4  16
ATOM     16  N   UNL     1       4.983   4.030 -13.138  1.00  0.00     0.066 N 
ATOM     17  O   UNL     1       4.945   4.311 -14.360  1.00  0.00    -0.258 OA
ATOM     18  O   UNL     1       5.186   4.900 -12.259  1.00  0.00    -0.258 OA
ENDBRANCH   4  16
BRANCH   5  19
ATOM     19  O   UNL     1       5.563  -0.728 -13.836  1.00  0.00    -0.504 OA
ATOM     20  H   UNL     1       5.887  -0.396 -14.690  1.00  0.00     0.293 HD
ENDBRANCH   5  19
BRANCH   6  21
ATOM     21  O   UNL     1       5.970   1.875 -14.659  1.00  0.00    -0.500 OA
ATOM     22  H   UNL     1       6.859   1.492 -14.600  1.00  0.00     0.294 HD
ENDBRANCH   6  21
TORSDOF 5
ENDMDL
MODEL 8
REMARK VINA RESULT:    -4.708      3.578      4.427
REMARK INTER + INTRA:          -6.568
REMARK INTER:                  -5.600
REMARK INTRA:                  -0.968
REMARK UNBOUND:                -0.759
REMARK SMILES Cc1ccc(C(=O)c2cc(O)c(O)c([N+](=O)[O-])c2)cc1
REMARK SMILES IDX 8 1 18 2 9 3 14 4 10 5 12 6 6 7 7 8 5 9 4 10 19 11 3 12
REMARK SMILES IDX 20 13 2 14 1 15 15 16 17 17 16 18 11 19 13 21
REMARK H PARENT 11 20 13 22
ROOT
ATOM      1  C   UNL     1       5.573   0.637 -10.698  1.00  0.00     0.033 A 
ATOM      2  C   UNL     1       4.544   0.533  -9.791  1.00  0.00     0.102 A 
ATOM      3  C   UNL     1       6.895   0.508 -10.346  1.00  0.00     0.063 A 
ATOM      4  C   UNL     1       4.857   0.285  -8.454  1.00  0.00     0.315 A 
ATOM      5  C   UNL     1       7.208   0.261  -9.009  1.00  0.00     0.165 A 
ATOM      6  C   UNL     1       6.188   0.149  -8.063  1.00  0.00     0.237 A 
ENDROOT
BRANCH   1   7
ATOM      7  C   UNL     1       5.238   0.903 -12.130  1.00  0.00     0.193 C 
ATOM      8  O   UNL     1       4.887   2.054 -12.428  1.00  0.00    -0.289 OA
BRANCH   7   9
ATOM      9  C   UNL     1       5.314  -0.128 -13.153  1.00  0.00     0.023 A 
ATOM     10  C   UNL     1       6.073   0.085 -14.304  1.00  0.00     0.012 A 
ATOM     11  C   UNL     1       4.628  -1.331 -12.983  1.00  0.00     0.012 A 
ATOM     12  C   UNL     1       6.145  -0.904 -15.284  1.00  0.00     0.004 A 
ATOM     13  C   UNL     1       4.701  -2.321 -13.964  1.00  0.00     0.004 A 
ATOM     14  C   UNL     1       5.459  -2.107 -15.115  1.00  0.00    -0.051 A 
ATOM     15  C   UNL     1       5.536  -3.163 -16.164  1.00  0.00     0.044 C 
ENDBRANCH   7   9
ENDBRANCH   1   7
BRANCH   4  16
ATOM     16  N   UNL     1       3.804   0.174  -7.504  1.00  0.00     0.066 N 
ATOM     17  O   UNL     1       2.846  -0.598  -7.749  1.00  0.00    -0.258 OA
ATOM     18  O   UNL     1       3.865   0.851  -6.451  1.00  0.00    -0.258 OA
ENDBRANCH   4  16
BRANCH   5  19
ATOM     19  O   UNL     1       8.514   0.130  -8.641  1.00  0.00    -0.504 OA
ATOM     20  H   UNL     1       9.086   0.287  -9.410  1.00  0.00     0.293 HD
ENDBRANCH   5  19
BRANCH   6  21
ATOM     21  O   UNL     1       6.507  -0.094  -6.758  1.00  0.00    -0.500 OA
ATOM     22  H   UNL     1       7.199  -0.773  -6.712  1.00  0.00     0.294 HD
ENDBRANCH   6  21
TORSDOF 5
ENDMDL
MODEL 9
REMARK VINA RESULT:    -4.529      1.943      2.522
REMARK INTER + INTRA:          -6.347
REMARK INTER:                  -5.678
REMARK INTRA:                  -0.669
REMARK UNBOUND:                -0.759
REMARK SMILES Cc1ccc(C(=O)c2cc(O)c(O)c([N+](=O)[O-])c2)cc1
REMARK SMILES IDX 8 1 18 2 9 3 14 4 10 5 12 6 6 7 7 8 5 9 4 10 19 11 3 12
REMARK SMILES IDX 20 13 2 14 1 15 15 16 17 17 16 18 11 19 13 21
REMARK H PARENT 11 20 13 22
ROOT
ATOM      1  C   UNL     1       3.993   1.091  -8.293  1.00  0.00     0.033 A 
ATOM      2  C   UNL     1       2.921   1.624  -7.616  1.00  0.00     0.102 A 
ATOM      3  C   UNL     1       4.754   0.060  -7.794  1.00  0.00     0.063 A 
ATOM      4  C   UNL     1       2.590   1.094  -6.368  1.00  0.00     0.315 A 
ATOM      5  C   UNL     1       4.423  -0.469  -6.546  1.00  0.00     0.165 A 
ATOM      6  C   UNL     1       3.341   0.048  -5.833  1.00  0.00     0.237 A 
ENDROOT
BRANCH   1   7
ATOM      7  C   UNL     1       4.348   1.658  -9.629  1.00  0.00     0.193 C 
ATOM      8  O   UNL     1       4.349   2.894  -9.740  1.00  0.00    -0.289 OA
BRANCH   7   9
ATOM      9  C   UNL     1       4.683   0.819 -10.768  1.00  0.00     0.023 A 
ATOM     10  C   UNL     1       3.709   0.512 -11.718  1.00  0.00     0.012 A 
ATOM     11  C   UNL     1       5.978   0.322 -10.912  1.00  0.00     0.012 A 
ATOM     12  C   UNL     1       4.030  -0.293 -12.811  1.00  0.00     0.004 A 
ATOM     13  C   UNL     1       6.300  -0.483 -12.005  1.00  0.00     0.004 A 
ATOM     14  C   UNL     1       5.326  -0.790 -12.955  1.00  0.00    -0.051 A 
ATOM     15  C   UNL     1       5.668  -1.652 -14.123  1.00  0.00     0.044 C 
ENDBRANCH   7   9
ENDBRANCH   1   7
BRANCH   4  16
ATOM     16  N   UNL     1       1.484   1.634  -5.657  1.00  0.00     0.066 N 
ATOM     17  O   UNL     1       0.348   1.606  -6.189  1.00  0.00    -0.258 OA
ATOM     18  O   UNL     1       1.676   2.121  -4.518  1.00  0.00    -0.258 OA
ENDBRANCH   4  16
BRANCH   5  19
ATOM     19  O   UNL     1       5.166  -1.492  -6.036  1.00  0.00    -0.504 OA
ATOM     20  H   UNL     1       5.103  -1.487  -5.067  1.00  0.00     0.293 HD
ENDBRANCH   5  19
BRANCH   6  21
ATOM     21  O   UNL     1       3.027  -0.479  -4.614  1.00  0.00    -0.500 OA
ATOM     22  H   UNL     1       2.181  -0.116  -4.310  1.00  0.00     0.294 HD
ENDBRANCH   6  21
TORSDOF 5
ENDMDL
