MODEL 1
REMARK VINA RESULT:    -5.277      0.000      0.000
REMARK INTER + INTRA:          -7.305
REMARK INTER:                  -6.512
REMARK INTRA:                  -0.794
REMARK UNBOUND:                -0.794
REMARK SMILES Cc1ccc(C(=O)c2cc(O)c(O)c([N+](=O)[O-])c2)cc1
REMARK SMILES IDX 8 1 18 2 9 3 14 4 10 5 12 6 6 7 7 8 5 9 4 10 19 11 3 12
REMARK SMILES IDX 20 13 2 14 1 15 15 16 17 17 16 18 11 19 13 21
REMARK H PARENT 11 20 13 22
ROOT
ATOM      1  C   UNL     1       2.726   6.019   3.016  1.00  0.00     0.033 A 
ATOM      2  C   UNL     1       1.465   6.083   2.470  1.00  0.00     0.102 A 
ATOM      3  C   UNL     1       3.526   4.906   2.918  1.00  0.00     0.063 A 
ATOM      4  C   UNL     1       0.977   4.970   1.786  1.00  0.00     0.315 A 
ATOM      5  C   UNL     1       3.039   3.792   2.234  1.00  0.00     0.165 A 
ATOM      6  C   UNL     1       1.764   3.824   1.667  1.00  0.00     0.237 A 
ENDROOT
BRANCH   1   7
ATOM      7  C   UNL     1       3.248   7.211   3.750  1.00  0.00     0.193 C 
ATOM      8  O   UNL     1       4.434   7.522   3.560  1.00  0.00    -0.289 OA
BRANCH   7   9
ATOM      9  C   UNL     1       2.422   7.994   4.654  1.00  0.00     0.023 A 
ATOM     10  C   UNL     1       2.415   7.705   6.019  1.00  0.00     0.012 A 
ATOM     11  C   UNL     1       1.636   9.034   4.158  1.00  0.00     0.012 A 
ATOM     12  C   UNL     1       1.622   8.457   6.887  1.00  0.00     0.004 A 
ATOM     13  C   UNL     1       0.843   9.786   5.025  1.00  0.00     0.004 A 
ATOM     14  C   UNL     1       0.836   9.497   6.390  1.00  0.00    -0.051 A 
ATOM     15  C   UNL     1      -0.012  10.299   7.318  1.00  0.00     0.044 C 
ENDBRANCH   7   9
ENDBRANCH   1   7
BRANCH   4  16
ATOM     16  N   UNL     1      -0.324   5.021   1.216  1.00  0.00     0.066 N 
ATOM     17  O   UNL     1      -0.716   6.093   0.695  1.00  0.00    -0.258 OA
ATOM     18  O   UNL     1      -1.041   3.994   1.249  1.00  0.00    -0.258 OA
ENDBRANCH   4  16
BRANCH   5  19
ATOM     19  O   UNL     1       3.818   2.680   2.125  1.00  0.00    -0.504 OA
ATOM     20  H   UNL     1       4.654   2.910   1.687  1.00  0.00     0.293 HD
ENDBRANCH   5  19
BRANCH   6  21
ATOM     21  O   UNL     1       1.298   2.729   1.000  1.00  0.00    -0.500 OA
ATOM     22  H   UNL     1       0.680   3.008   0.306  1.00  0.00     0.294 HD
ENDBRANCH   6  21
TORSDOF 5
ENDMDL
MODEL 2
REMARK VINA RESULT:    -5.256      2.029      3.517
REMARK INTER + INTRA:          -7.279
REMARK INTER:                  -6.498
REMARK INTRA:                  -0.781
REMARK UNBOUND:                -0.794
REMARK SMILES Cc1ccc(C(=O)c2cc(O)c(O)c([N+](=O)[O-])c2)cc1
REMARK SMILES IDX 8 1 18 2 9 3 14 4 10 5 12 6 6 7 7 8 5 9 4 10 19 11 3 12
REMARK SMILES IDX 20 13 2 14 1 15 15 16 17 17 16 18 11 19 13 21
REMARK H PARENT 11 20 13 22
ROOT
ATOM      1  C   UNL     1       1.009   5.773   3.641  1.00  0.00     0.033 A 
ATOM      2  C   UNL     1       2.182   5.056   3.685  1.00  0.00     0.102 A 
ATOM      3  C   UNL     1       0.028   5.542   2.706  1.00  0.00     0.063 A 
ATOM      4  C   UNL     1       2.385   4.050   2.741  1.00  0.00     0.315 A 
ATOM      5  C   UNL     1       0.231   4.537   1.761  1.00  0.00     0.165 A 
ATOM      6  C   UNL     1       1.410   3.790   1.778  1.00  0.00     0.237 A 
ENDROOT
BRANCH   1   7
ATOM      7  C   UNL     1       0.792   6.851   4.653  1.00  0.00     0.193 C 
ATOM      8  O   UNL     1      -0.340   6.943   5.152  1.00  0.00    -0.289 OA
BRANCH   7   9
ATOM      9  C   UNL     1       1.847   7.767   5.055  1.00  0.00     0.023 A 
ATOM     10  C   UNL     1       1.967   9.009   4.431  1.00  0.00     0.012 A 
ATOM     11  C   UNL     1       2.738   7.405   6.065  1.00  0.00     0.012 A 
ATOM     12  C   UNL     1       2.979   9.888   4.816  1.00  0.00     0.004 A 
ATOM     13  C   UNL     1       3.751   8.284   6.451  1.00  0.00     0.004 A 
ATOM     14  C   UNL     1       3.871   9.526   5.827  1.00  0.00    -0.051 A 
ATOM     15  C   UNL     1       4.953  10.465   6.237  1.00  0.00     0.044 C 
ENDBRANCH   7   9
ENDBRANCH   1   7
BRANCH   4  16
ATOM     16  N   UNL     1       3.592   3.300   2.774  1.00  0.00     0.066 N 
ATOM     17  O   UNL     1       4.129   2.967   1.690  1.00  0.00    -0.258 OA
ATOM     18  O   UNL     1       4.086   2.995   3.885  1.00  0.00    -0.258 OA
ENDBRANCH   4  16
BRANCH   5  19
ATOM     19  O   UNL     1      -0.731   4.294   0.827  1.00  0.00    -0.504 OA
ATOM     20  H   UNL     1      -1.294   5.079   0.728  1.00  0.00     0.293 HD
ENDBRANCH   5  19
BRANCH   6  21
ATOM     21  O   UNL     1       1.596   2.809   0.849  1.00  0.00    -0.500 OA
ATOM     22  H   UNL     1       2.007   2.037   1.268  1.00  0.00     0.294 HD
ENDBRANCH   6  21
TORSDOF 5
ENDMDL
MODEL 3
REMARK VINA RESULT:    -4.960      1.801      2.069
REMARK INTER + INTRA:          -6.913
REMARK INTER:                  -6.286
REMARK INTRA:                  -0.626
REMARK UNBOUND:                -0.794
REMARK SMILES Cc1ccc(C(=O)c2cc(O)c(O)c([N+](=O)[O-])c2)cc1
REMARK SMILES IDX 8 1 18 2 9 3 14 4 10 5 12 6 6 7 7 8 5 9 4 10 19 11 3 12
REMARK SMILES IDX 20 13 2 14 1 15 15 16 17 17 16 18 11 19 13 21
REMARK H PARENT 11 20 13 22
ROOT
ATOM      1  C   UNL     1       2.100   4.622   3.938  1.00  0.00     0.033 A 
ATOM      2  C   UNL     1       0.879   4.798   3.329  1.00  0.00     0.102 A 
ATOM      3  C   UNL     1       3.144   3.960   3.338  1.00  0.00     0.063 A 
ATOM      4  C   UNL     1       0.693   4.283   2.046  1.00  0.00     0.315 A 
ATOM      5  C   UNL     1       2.959   3.444   2.055  1.00  0.00     0.165 A 
ATOM      6  C   UNL     1       1.732   3.606   1.409  1.00  0.00     0.237 A 
ENDROOT
BRANCH   1   7
ATOM      7  C   UNL     1       2.299   5.173   5.312  1.00  0.00     0.193 C 
ATOM      8  O   UNL     1       2.173   4.388   6.264  1.00  0.00    -0.289 OA
BRANCH   7   9
ATOM      9  C   UNL     1       2.628   6.569   5.552  1.00  0.00     0.023 A 
ATOM     10  C   UNL     1       3.361   6.928   6.683  1.00  0.00     0.012 A 
ATOM     11  C   UNL     1       2.210   7.549   4.652  1.00  0.00     0.012 A 
ATOM     12  C   UNL     1       3.677   8.267   6.913  1.00  0.00     0.004 A 
ATOM     13  C   UNL     1       2.526   8.889   4.881  1.00  0.00     0.004 A 
ATOM     14  C   UNL     1       3.259   9.248   6.012  1.00  0.00    -0.051 A 
ATOM     15  C   UNL     1       3.596  10.679   6.259  1.00  0.00     0.044 C 
ENDBRANCH   7   9
ENDBRANCH   1   7
BRANCH   4  16
ATOM     16  N   UNL     1      -0.564   4.457   1.404  1.00  0.00     0.066 N 
ATOM     17  O   UNL     1      -1.223   3.441   1.076  1.00  0.00    -0.258 OA
ATOM     18  O   UNL     1      -0.976   5.620   1.184  1.00  0.00    -0.258 OA
ENDBRANCH   4  16
BRANCH   5  19
ATOM     19  O   UNL     1       3.983   2.786   1.444  1.00  0.00    -0.504 OA
ATOM     20  H   UNL     1       3.667   2.389   0.615  1.00  0.00     0.293 HD
ENDBRANCH   5  19
BRANCH   6  21
ATOM     21  O   UNL     1       1.563   3.098   0.153  1.00  0.00    -0.500 OA
ATOM     22  H   UNL     1       0.796   2.505   0.143  1.00  0.00     0.294 HD
ENDBRANCH   6  21
TORSDOF 5
ENDMDL
MODEL 4
REMARK VINA RESULT:    -4.939      1.655      2.943
REMARK INTER + INTRA:          -6.888
REMARK INTER:                  -6.247
REMARK INTRA:                  -0.641
REMARK UNBOUND:                -0.794
REMARK SMILES Cc1ccc(C(=O)c2cc(O)c(O)c([N+](=O)[O-])c2)cc1
REMARK SMILES IDX 8 1 18 2 9 3 14 4 10 5 12 6 6 7 7 8 5 9 4 10 19 11 3 12
REMARK SMILES IDX 20 13 2 14 1 15 15 16 17 17 16 18 11 19 13 21
REMARK H PARENT 11 20 13 22
ROOT
ATOM      1  C   UNL     1       1.522   6.220   1.972  1.00  0.00     0.033 A 
ATOM      2  C   UNL     1       2.667   5.477   2.144  1.00  0.00     0.102 A 
ATOM      3  C   UNL     1       0.313   5.660   1.635  1.00  0.00     0.063 A 
ATOM      4  C   UNL     1       2.597   4.094   1.970  1.00  0.00     0.315 A 
ATOM      5  C   UNL     1       0.243   4.278   1.460  1.00  0.00     0.165 A 
ATOM      6  C   UNL     1       1.385   3.495   1.628  1.00  0.00     0.237 A 
ENDROOT
BRANCH   1   7
ATOM      7  C   UNL     1       1.597   7.700   2.158  1.00  0.00     0.193 C 
ATOM      8  O   UNL     1       1.715   8.397   1.139  1.00  0.00    -0.289 OA
BRANCH   7   9
ATOM      9  C   UNL     1       1.536   8.325   3.470  1.00  0.00     0.023 A 
ATOM     10  C   UNL     1       2.019   7.647   4.589  1.00  0.00     0.012 A 
ATOM     11  C   UNL     1       0.994   9.603   3.609  1.00  0.00     0.012 A 
ATOM     12  C   UNL     1       1.960   8.247   5.847  1.00  0.00     0.004 A 
ATOM     13  C   UNL     1       0.935  10.203   4.867  1.00  0.00     0.004 A 
ATOM     14  C   UNL     1       1.418   9.525   5.986  1.00  0.00    -0.051 A 
ATOM     15  C   UNL     1       1.355  10.165   7.331  1.00  0.00     0.044 C 
ENDBRANCH   7   9
ENDBRANCH   1   7
BRANCH   4  16
ATOM     16  N   UNL     1       3.772   3.313   2.144  1.00  0.00     0.066 N 
ATOM     17  O   UNL     1       4.354   3.334   3.256  1.00  0.00    -0.258 OA
ATOM     18  O   UNL     1       4.191   2.625   1.184  1.00  0.00    -0.258 OA
ENDBRANCH   4  16
BRANCH   5  19
ATOM     19  O   UNL     1      -0.948   3.706   1.127  1.00  0.00    -0.504 OA
ATOM     20  H   UNL     1      -1.522   4.369   0.710  1.00  0.00     0.293 HD
ENDBRANCH   5  19
BRANCH   6  21
ATOM     21  O   UNL     1       1.304   2.143   1.455  1.00  0.00    -0.500 OA
ATOM     22  H   UNL     1       1.954   1.860   0.793  1.00  0.00     0.294 HD
ENDBRANCH   6  21
TORSDOF 5
ENDMDL
MODEL 5
REMARK VINA RESULT:    -4.826      3.604      4.451
REMARK INTER + INTRA:          -6.749
REMARK INTER:                  -5.766
REMARK INTRA:                  -0.983
REMARK UNBOUND:                -0.794
REMARK SMILES Cc1ccc(C(=O)c2cc(O)c(O)c([N+](=O)[O-])c2)cc1
REMARK SMILES IDX 8 1 18 2 9 3 14 4 10 5 12 6 6 7 7 8 5 9 4 10 19 11 3 12
REMARK SMILES IDX 20 13 2 14 1 15 15 16 17 17 16 18 11 19 13 21
REMARK H PARENT 11 20 13 22
ROOT
ATOM      1  C   UNL     1       2.702   7.835   6.013  1.00  0.00     0.033 A 
ATOM      2  C   UNL     1       2.268   7.353   4.799  1.00  0.00     0.102 A 
ATOM      3  C   UNL     1       3.173   7.019   7.014  1.00  0.00     0.063 A 
ATOM      4  C   UNL     1       2.311   5.977   4.574  1.00  0.00     0.315 A 
ATOM      5  C   UNL     1       3.215   5.643   6.789  1.00  0.00     0.165 A 
ATOM      6  C   UNL     1       2.784   5.122   5.568  1.00  0.00     0.237 A 
ENDROOT
BRANCH   1   7
ATOM      7  C   UNL     1       2.656   9.308   6.255  1.00  0.00     0.193 C 
ATOM      8  O   UNL     1       1.549   9.810   6.502  1.00  0.00    -0.289 OA
BRANCH   7   9
ATOM      9  C   UNL     1       3.846  10.143   6.207  1.00  0.00     0.023 A 
ATOM     10  C   UNL     1       4.161  10.970   7.286  1.00  0.00     0.012 A 
ATOM     11  C   UNL     1       4.672  10.118   5.084  1.00  0.00     0.012 A 
ATOM     12  C   UNL     1       5.302  11.770   7.241  1.00  0.00     0.004 A 
ATOM     13  C   UNL     1       5.814  10.918   5.038  1.00  0.00     0.004 A 
ATOM     14  C   UNL     1       6.129  11.745   6.117  1.00  0.00    -0.051 A 
ATOM     15  C   UNL     1       7.348  12.601   6.069  1.00  0.00     0.044 C 
ENDBRANCH   7   9
ENDBRANCH   1   7
BRANCH   4  16
ATOM     16  N   UNL     1       1.867   5.465   3.324  1.00  0.00     0.066 N 
ATOM     17  O   UNL     1       2.170   6.082   2.274  1.00  0.00    -0.258 OA
ATOM     18  O   UNL     1       1.186   4.413   3.308  1.00  0.00    -0.258 OA
ENDBRANCH   4  16
BRANCH   5  19
ATOM     19  O   UNL     1       3.681   4.819   7.769  1.00  0.00    -0.504 OA
ATOM     20  H   UNL     1       4.528   4.433   7.494  1.00  0.00     0.293 HD
ENDBRANCH   5  19
BRANCH   6  21
ATOM     21  O   UNL     1       2.830   3.774   5.360  1.00  0.00    -0.500 OA
ATOM     22  H   UNL     1       2.552   3.575   4.452  1.00  0.00     0.294 HD
ENDBRANCH   6  21
TORSDOF 5
ENDMDL
MODEL 6
REMARK VINA RESULT:    -4.811      3.678      6.583
REMARK INTER + INTRA:          -6.730
REMARK INTER:                  -5.807
REMARK INTRA:                  -0.923
REMARK UNBOUND:                -0.794
REMARK SMILES Cc1ccc(C(=O)c2cc(O)c(O)c([N+](=O)[O-])c2)cc1
REMARK SMILES IDX 8 1 18 2 9 3 14 4 10 5 12 6 6 7 7 8 5 9 4 10 19 11 3 12
REMARK SMILES IDX 20 13 2 14 1 15 15 16 17 17 16 18 11 19 13 21
REMARK H PARENT 11 20 13 22
ROOT
ATOM      1  C   UNL     1       2.741   7.970   5.825  1.00  0.00     0.033 A 
ATOM      2  C   UNL     1       1.654   8.684   6.274  1.00  0.00     0.102 A 
ATOM      3  C   UNL     1       4.021   8.469   5.846  1.00  0.00     0.063 A 
ATOM      4  C   UNL     1       1.860   9.970   6.772  1.00  0.00     0.315 A 
ATOM      5  C   UNL     1       4.228   9.756   6.344  1.00  0.00     0.165 A 
ATOM      6  C   UNL     1       3.147  10.507   6.808  1.00  0.00     0.237 A 
ENDROOT
BRANCH   1   7
ATOM      7  C   UNL     1       2.520   6.592   5.291  1.00  0.00     0.193 C 
ATOM      8  O   UNL     1       3.119   5.662   5.852  1.00  0.00    -0.289 OA
BRANCH   7   9
ATOM      9  C   UNL     1       1.644   6.325   4.162  1.00  0.00     0.023 A 
ATOM     10  C   UNL     1       1.652   7.176   3.056  1.00  0.00     0.012 A 
ATOM     11  C   UNL     1       0.796   5.218   4.183  1.00  0.00     0.012 A 
ATOM     12  C   UNL     1       0.812   6.919   1.973  1.00  0.00     0.004 A 
ATOM     13  C   UNL     1      -0.045   4.961   3.100  1.00  0.00     0.004 A 
ATOM     14  C   UNL     1      -0.037   5.811   1.994  1.00  0.00    -0.051 A 
ATOM     15  C   UNL     1      -0.935   5.538   0.836  1.00  0.00     0.044 C 
ENDBRANCH   7   9
ENDBRANCH   1   7
BRANCH   4  16
ATOM     16  N   UNL     1       0.746  10.720   7.240  1.00  0.00     0.066 N 
ATOM     17  O   UNL     1      -0.368  10.560   6.686  1.00  0.00    -0.258 OA
ATOM     18  O   UNL     1       0.910  11.518   8.192  1.00  0.00    -0.258 OA
ENDBRANCH   4  16
BRANCH   5  19
ATOM     19  O   UNL     1       5.491  10.267   6.373  1.00  0.00    -0.504 OA
ATOM     20  H   UNL     1       6.069   9.677   6.884  1.00  0.00     0.293 HD
ENDBRANCH   5  19
BRANCH   6  21
ATOM     21  O   UNL     1       3.361  11.764   7.293  1.00  0.00    -0.500 OA
ATOM     22  H   UNL     1       4.311  11.901   7.435  1.00  0.00     0.294 HD
ENDBRANCH   6  21
TORSDOF 5
ENDMDL
MODEL 7
REMARK VINA RESULT:    -4.805      2.399      4.156
REMARK INTER + INTRA:          -6.722
REMARK INTER:                  -5.731
REMARK INTRA:                  -0.991
REMARK UNBOUND:                -0.794
REMARK SMILES Cc1ccc(C(=O)c2cc(O)c(O)c([N+](=O)[O-])c2)cc1
REMARK SMILES IDX 8 1 18 2 9 3 14 4 10 5 12 6 6 7 7 8 5 9 4 10 19 11 3 12
REMARK SMILES IDX 20 13 2 14 1 15 15 16 17 17 16 18 11 19 13 21
REMARK H PARENT 11 20 13 22
ROOT
ATOM      1  C   UNL     1       1.709   9.039   4.584  1.00  0.00     0.033 A 
ATOM      2  C   UNL     1       1.868   7.686   4.393  1.00  0.00     0.102 A 
ATOM      3  C   UNL     1       1.258   9.884   3.599  1.00  0.00     0.063 A 
ATOM      4  C   UNL     1       1.557   7.148   3.145  1.00  0.00     0.315 A 
ATOM      5  C   UNL     1       0.947   9.346   2.349  1.00  0.00     0.165 A 
ATOM      6  C   UNL     1       1.096   7.977   2.123  1.00  0.00     0.237 A 
ENDROOT
BRANCH   1   7
ATOM      7  C   UNL     1       2.043   9.616   5.921  1.00  0.00     0.193 C 
ATOM      8  O   UNL     1       3.245   9.758   6.196  1.00  0.00    -0.289 OA
BRANCH   7   9
ATOM      9  C   UNL     1       1.022  10.003   6.881  1.00  0.00     0.023 A 
ATOM     10  C   UNL     1       1.002  11.300   7.393  1.00  0.00     0.012 A 
ATOM     11  C   UNL     1       0.061   9.077   7.288  1.00  0.00     0.012 A 
ATOM     12  C   UNL     1       0.021  11.671   8.313  1.00  0.00     0.004 A 
ATOM     13  C   UNL     1      -0.920   9.448   8.209  1.00  0.00     0.004 A 
ATOM     14  C   UNL     1      -0.940  10.746   8.721  1.00  0.00    -0.051 A 
ATOM     15  C   UNL     1      -1.987  11.142   9.706  1.00  0.00     0.044 C 
ENDBRANCH   7   9
ENDBRANCH   1   7
BRANCH   4  16
ATOM     16  N   UNL     1       1.715   5.751   2.932  1.00  0.00     0.066 N 
ATOM     17  O   UNL     1       2.183   5.354   1.838  1.00  0.00    -0.258 OA
ATOM     18  O   UNL     1       1.384   4.958   3.844  1.00  0.00    -0.258 OA
ENDBRANCH   4  16
BRANCH   5  19
ATOM     19  O   UNL     1       0.497  10.169   1.360  1.00  0.00    -0.504 OA
ATOM     20  H   UNL     1       0.778  11.081   1.543  1.00  0.00     0.293 HD
ENDBRANCH   5  19
BRANCH   6  21
ATOM     21  O   UNL     1       0.788   7.463   0.897  1.00  0.00    -0.500 OA
ATOM     22  H   UNL     1      -0.129   7.684   0.671  1.00  0.00     0.294 HD
ENDBRANCH   6  21
TORSDOF 5
ENDMDL
MODEL 8
REMARK VINA RESULT:    -4.787      3.551      7.105
REMARK INTER + INTRA:          -6.700
REMARK INTER:                  -5.760
REMARK INTRA:                  -0.940
REMARK UNBOUND:                -0.794
REMARK SMILES Cc1ccc(C(=O)c2cc(O)c(O)c([N+](=O)[O-])c2)cc1
REMARK SMILES IDX 8 1 18 2 9 3 14 4 10 5 12 6 6 7 7 8 5 9 4 10 19 11 3 12
REMARK SMILES IDX 20 13 2 14 1 15 15 16 17 17 16 18 11 19 13 21
REMARK H PARENT 11 20 13 22
ROOT
ATOM      1  C   UNL     1       1.729   8.923   4.762  1.00  0.00     0.033 A 
ATOM      2  C   UNL     1       2.985   9.344   5.135  1.00  0.00     0.102 A 
ATOM      3  C   UNL     1       0.588   9.293   5.433  1.00  0.00     0.063 A 
ATOM      4  C   UNL     1       3.105  10.184   6.242  1.00  0.00     0.315 A 
ATOM      5  C   UNL     1       0.708  10.133   6.541  1.00  0.00     0.165 A 
ATOM      6  C   UNL     1       1.967  10.579   6.945  1.00  0.00     0.237 A 
ENDROOT
BRANCH   1   7
ATOM      7  C   UNL     1       1.600   8.023   3.576  1.00  0.00     0.193 C 
ATOM      8  O   UNL     1       0.890   8.416   2.638  1.00  0.00    -0.289 OA
BRANCH   7   9
ATOM      9  C   UNL     1       2.269   6.735   3.499  1.00  0.00     0.023 A 
ATOM     10  C   UNL     1       2.266   5.880   4.601  1.00  0.00     0.012 A 
ATOM     11  C   UNL     1       2.914   6.353   2.322  1.00  0.00     0.012 A 
ATOM     12  C   UNL     1       2.908   4.644   4.527  1.00  0.00     0.004 A 
ATOM     13  C   UNL     1       3.556   5.116   2.247  1.00  0.00     0.004 A 
ATOM     14  C   UNL     1       3.553   4.261   3.350  1.00  0.00    -0.051 A 
ATOM     15  C   UNL     1       4.240   2.941   3.271  1.00  0.00     0.044 C 
ENDBRANCH   7   9
ENDBRANCH   1   7
BRANCH   4  16
ATOM     16  N   UNL     1       4.396  10.627   6.640  1.00  0.00     0.066 N 
ATOM     17  O   UNL     1       5.382   9.877   6.441  1.00  0.00    -0.258 OA
ATOM     18  O   UNL     1       4.511  11.754   7.176  1.00  0.00    -0.258 OA
ENDBRANCH   4  16
BRANCH   5  19
ATOM     19  O   UNL     1      -0.413  10.511   7.218  1.00  0.00    -0.504 OA
ATOM     20  H   UNL     1      -0.925  11.134   6.676  1.00  0.00     0.293 HD
ENDBRANCH   5  19
BRANCH   6  21
ATOM     21  O   UNL     1       2.072  11.400   8.030  1.00  0.00    -0.500 OA
ATOM     22  H   UNL     1       2.934  11.844   8.021  1.00  0.00     0.294 HD
ENDBRANCH   6  21
TORSDOF 5
ENDMDL
MODEL 9
REMARK VINA RESULT:    -4.643      3.705      6.687
REMARK INTER + INTRA:          -6.522
REMARK INTER:                  -5.585
REMARK INTRA:                  -0.937
REMARK UNBOUND:                -0.794
REMARK SMILES Cc1ccc(C(=O)c2cc(O)c(O)c([N+](=O)[O-])c2)cc1
REMARK SMILES IDX 8 1 18 2 9 3 14 4 10 5 12 6 6 7 7 8 5 9 4 10 19 11 3 12
REMARK SMILES IDX 20 13 2 14 1 15 15 16 17 17 16 18 11 19 13 21
REMARK H PARENT 11 20 13 22
ROOT
ATOM      1  C   UNL     1       1.749   8.907   4.772  1.00  0.00     0.033 A 
ATOM      2  C   UNL     1       0.622   9.244   5.485  1.00  0.00     0.102 A 
ATOM      3  C   UNL     1       3.003   9.366   5.097  1.00  0.00     0.063 A 
ATOM      4  C   UNL     1       0.758  10.087   6.588  1.00  0.00     0.315 A 
ATOM      5  C   UNL     1       3.139  10.211   6.199  1.00  0.00     0.165 A 
ATOM      6  C   UNL     1       2.016  10.571   6.945  1.00  0.00     0.237 A 
ENDROOT
BRANCH   1   7
ATOM      7  C   UNL     1       1.603   8.004   3.590  1.00  0.00     0.193 C 
ATOM      8  O   UNL     1       0.876   8.392   2.663  1.00  0.00    -0.289 OA
BRANCH   7   9
ATOM      9  C   UNL     1       2.274   6.717   3.506  1.00  0.00     0.023 A 
ATOM     10  C   UNL     1       2.312   5.875   4.618  1.00  0.00     0.012 A 
ATOM     11  C   UNL     1       2.880   6.324   2.313  1.00  0.00     0.012 A 
ATOM     12  C   UNL     1       2.956   4.641   4.536  1.00  0.00     0.004 A 
ATOM     13  C   UNL     1       3.525   5.089   2.230  1.00  0.00     0.004 A 
ATOM     14  C   UNL     1       3.563   4.247   3.342  1.00  0.00    -0.051 A 
ATOM     15  C   UNL     1       4.252   2.928   3.256  1.00  0.00     0.044 C 
ENDBRANCH   7   9
ENDBRANCH   1   7
BRANCH   4  16
ATOM     16  N   UNL     1      -0.398  10.444   7.335  1.00  0.00     0.066 N 
ATOM     17  O   UNL     1      -0.499  11.615   7.774  1.00  0.00    -0.258 OA
ATOM     18  O   UNL     1      -1.282   9.578   7.534  1.00  0.00    -0.258 OA
ENDBRANCH   4  16
BRANCH   5  19
ATOM     19  O   UNL     1       4.375  10.675   6.537  1.00  0.00    -0.504 OA
ATOM     20  H   UNL     1       4.344  11.641   6.632  1.00  0.00     0.293 HD
ENDBRANCH   5  19
BRANCH   6  21
ATOM     21  O   UNL     1       2.162  11.397   8.022  1.00  0.00    -0.500 OA
ATOM     22  H   UNL     1       1.301  11.772   8.264  1.00  0.00     0.294 HD
ENDBRANCH   6  21
TORSDOF 5
ENDMDL
