MODEL 1
REMARK VINA RESULT:    -7.079      0.000      0.000
REMARK INTER + INTRA:          -8.864
REMARK INTER:                  -8.320
REMARK INTRA:                  -0.544
REMARK UNBOUND:                -0.544
REMARK SMILES O=C(O)c1cc(-c2ccc(F)cc2F)ccc1O
REMARK SMILES IDX 6 1 5 2 15 3 4 4 17 5 16 6 7 7 13 8 12 9 8 10 10 11 9 12
REMARK SMILES IDX 14 13 11 14 2 15 1 16 3 17 18 19
REMARK H PARENT 3 18 18 20
ROOT
ATOM      1  C   UNL     1       7.197   2.177  -2.490  1.00  0.00    -0.014 A 
ATOM      2  C   UNL     1       6.140   3.062  -2.699  1.00  0.00     0.028 A 
ATOM      3  C   UNL     1       6.944   0.880  -2.044  1.00  0.00     0.013 A 
ATOM      4  C   UNL     1       4.828   2.651  -2.461  1.00  0.00     0.102 A 
ATOM      5  C   UNL     1       4.575   1.354  -2.014  1.00  0.00     0.130 A 
ATOM      6  C   UNL     1       5.633   0.468  -1.806  1.00  0.00     0.048 A 
ENDROOT
BRANCH   1   7
ATOM      7  C   UNL     1       8.558   2.603  -2.735  1.00  0.00     0.018 A 
ATOM      8  C   UNL     1       8.868   3.329  -3.886  1.00  0.00     0.133 A 
ATOM      9  C   UNL     1      10.182   3.738  -4.119  1.00  0.00     0.079 A 
ATOM     10  C   UNL     1       9.560   2.289  -1.818  1.00  0.00     0.015 A 
ATOM     11  C   UNL     1      11.184   3.422  -3.202  1.00  0.00     0.126 A 
ATOM     12  C   UNL     1      10.872   2.698  -2.051  1.00  0.00     0.040 A 
ATOM     13  F   UNL     1       7.918   3.638  -4.779  1.00  0.00    -0.206 F 
ATOM     14  F   UNL     1      12.445   3.815  -3.424  1.00  0.00    -0.207 F 
ENDBRANCH   1   7
BRANCH   4  15
ATOM     15  C   UNL     1       3.738   3.590  -2.685  1.00  0.00     0.339 C 
ATOM     16  O   UNL     1       2.897   3.920  -1.846  1.00  0.00    -0.246 OA
BRANCH  15  17
ATOM     17  O   UNL     1       3.735   4.087  -3.952  1.00  0.00    -0.478 OA
ATOM     18  H   UNL     1       2.863   3.975  -4.385  1.00  0.00     0.297 HD
ENDBRANCH  15  17
ENDBRANCH   4  15
BRANCH   5  19
ATOM     19  O   UNL     1       3.300   0.932  -1.777  1.00  0.00    -0.507 OA
ATOM     20  H   UNL     1       3.111   1.013  -0.826  1.00  0.00     0.293 HD
ENDBRANCH   5  19
TORSDOF 4
ENDMDL
MODEL 2
REMARK VINA RESULT:    -7.066      1.654      3.153
REMARK INTER + INTRA:          -8.849
REMARK INTER:                  -8.308
REMARK INTRA:                  -0.541
REMARK UNBOUND:                -0.544
REMARK SMILES O=C(O)c1cc(-c2ccc(F)cc2F)ccc1O
REMARK SMILES IDX 6 1 5 2 15 3 4 4 17 5 16 6 7 7 13 8 12 9 8 10 10 11 9 12
REMARK SMILES IDX 14 13 11 14 2 15 1 16 3 17 18 19
REMARK H PARENT 3 18 18 20
ROOT
ATOM      1  C   UNL     1       7.196   2.211  -2.433  1.00  0.00    -0.014 A 
ATOM      2  C   UNL     1       6.984   0.906  -1.992  1.00  0.00     0.028 A 
ATOM      3  C   UNL     1       6.110   3.063  -2.637  1.00  0.00     0.013 A 
ATOM      4  C   UNL     1       5.687   0.451  -1.754  1.00  0.00     0.102 A 
ATOM      5  C   UNL     1       4.601   1.302  -1.958  1.00  0.00     0.130 A 
ATOM      6  C   UNL     1       4.813   2.609  -2.400  1.00  0.00     0.048 A 
ENDROOT
BRANCH   1   7
ATOM      7  C   UNL     1       8.541   2.683  -2.681  1.00  0.00     0.018 A 
ATOM      8  C   UNL     1       9.562   2.398  -1.773  1.00  0.00     0.133 A 
ATOM      9  C   UNL     1      10.857   2.855  -2.016  1.00  0.00     0.079 A 
ATOM     10  C   UNL     1       8.816   3.424  -3.830  1.00  0.00     0.015 A 
ATOM     11  C   UNL     1      11.132   3.597  -3.164  1.00  0.00     0.126 A 
ATOM     12  C   UNL     1      10.111   3.881  -4.072  1.00  0.00     0.040 A 
ATOM     13  F   UNL     1       9.314   1.689  -0.663  1.00  0.00    -0.206 F 
ATOM     14  F   UNL     1      12.375   4.036  -3.398  1.00  0.00    -0.207 F 
ENDBRANCH   1   7
BRANCH   4  15
ATOM     15  C   UNL     1       5.487  -0.916  -1.293  1.00  0.00     0.339 C 
ATOM     16  O   UNL     1       4.780  -1.761  -1.849  1.00  0.00    -0.246 OA
BRANCH  15  17
ATOM     17  O   UNL     1       6.179  -1.185  -0.153  1.00  0.00    -0.478 OA
ATOM     18  H   UNL     1       7.012  -0.670  -0.101  1.00  0.00     0.297 HD
ENDBRANCH  15  17
ENDBRANCH   4  15
BRANCH   5  19
ATOM     19  O   UNL     1       3.326   0.878  -1.731  1.00  0.00    -0.507 OA
ATOM     20  H   UNL     1       3.296  -0.092  -1.808  1.00  0.00     0.293 HD
ENDBRANCH   5  19
TORSDOF 4
ENDMDL
MODEL 3
REMARK VINA RESULT:    -7.001      1.299      2.762
REMARK INTER + INTRA:          -8.773
REMARK INTER:                  -8.100
REMARK INTRA:                  -0.673
REMARK UNBOUND:                -0.544
REMARK SMILES O=C(O)c1cc(-c2ccc(F)cc2F)ccc1O
REMARK SMILES IDX 6 1 5 2 15 3 4 4 17 5 16 6 7 7 13 8 12 9 8 10 10 11 9 12
REMARK SMILES IDX 14 13 11 14 2 15 1 16 3 17 18 19
REMARK H PARENT 3 18 18 20
ROOT
ATOM      1  C   UNL     1       7.227   2.138  -2.435  1.00  0.00    -0.014 A 
ATOM      2  C   UNL     1       7.046   0.808  -2.061  1.00  0.00     0.028 A 
ATOM      3  C   UNL     1       6.125   2.984  -2.563  1.00  0.00     0.013 A 
ATOM      4  C   UNL     1       5.762   0.321  -1.815  1.00  0.00     0.102 A 
ATOM      5  C   UNL     1       4.659   1.166  -1.942  1.00  0.00     0.130 A 
ATOM      6  C   UNL     1       4.842   2.499  -2.316  1.00  0.00     0.048 A 
ENDROOT
BRANCH   1   7
ATOM      7  C   UNL     1       8.559   2.643  -2.692  1.00  0.00     0.018 A 
ATOM      8  C   UNL     1       8.818   3.379  -3.850  1.00  0.00     0.133 A 
ATOM      9  C   UNL     1      10.103   3.863  -4.094  1.00  0.00     0.079 A 
ATOM     10  C   UNL     1       9.584   2.395  -1.780  1.00  0.00     0.015 A 
ATOM     11  C   UNL     1      11.128   3.614  -3.182  1.00  0.00     0.126 A 
ATOM     12  C   UNL     1      10.868   2.880  -2.024  1.00  0.00     0.040 A 
ATOM     13  F   UNL     1       7.845   3.624  -4.738  1.00  0.00    -0.206 F 
ATOM     14  F   UNL     1      12.362   4.079  -3.415  1.00  0.00    -0.207 F 
ENDBRANCH   1   7
BRANCH   4  15
ATOM     15  C   UNL     1       5.593  -1.072  -1.425  1.00  0.00     0.339 C 
ATOM     16  O   UNL     1       4.711  -1.827  -1.840  1.00  0.00    -0.246 OA
BRANCH  15  17
ATOM     17  O   UNL     1       6.534  -1.477  -0.529  1.00  0.00    -0.478 OA
ATOM     18  H   UNL     1       7.388  -1.681  -0.965  1.00  0.00     0.297 HD
ENDBRANCH  15  17
ENDBRANCH   4  15
BRANCH   5  19
ATOM     19  O   UNL     1       3.397   0.711  -1.705  1.00  0.00    -0.507 OA
ATOM     20  H   UNL     1       3.386  -0.258  -1.797  1.00  0.00     0.293 HD
ENDBRANCH   5  19
TORSDOF 4
ENDMDL
MODEL 4
REMARK VINA RESULT:    -5.048      1.677      2.956
REMARK INTER + INTRA:          -6.477
REMARK INTER:                  -5.908
REMARK INTRA:                  -0.569
REMARK UNBOUND:                -0.544
REMARK SMILES O=C(O)c1cc(-c2ccc(F)cc2F)ccc1O
REMARK SMILES IDX 6 1 5 2 15 3 4 4 17 5 16 6 7 7 13 8 12 9 8 10 10 11 9 12
REMARK SMILES IDX 14 13 11 14 2 15 1 16 3 17 18 19
REMARK H PARENT 3 18 18 20
ROOT
ATOM      1  C   UNL     1       7.522   2.377  -2.560  1.00  0.00    -0.014 A 
ATOM      2  C   UNL     1       7.345   1.111  -2.004  1.00  0.00     0.028 A 
ATOM      3  C   UNL     1       6.412   3.147  -2.908  1.00  0.00     0.013 A 
ATOM      4  C   UNL     1       6.058   0.614  -1.795  1.00  0.00     0.102 A 
ATOM      5  C   UNL     1       4.949   1.384  -2.143  1.00  0.00     0.130 A 
ATOM      6  C   UNL     1       5.126   2.652  -2.700  1.00  0.00     0.048 A 
ENDROOT
BRANCH   1   7
ATOM      7  C   UNL     1       8.857   2.893  -2.778  1.00  0.00     0.018 A 
ATOM      8  C   UNL     1       9.879   2.038  -3.192  1.00  0.00     0.133 A 
ATOM      9  C   UNL     1      11.164   2.539  -3.400  1.00  0.00     0.079 A 
ATOM     10  C   UNL     1       9.119   4.247  -2.575  1.00  0.00     0.015 A 
ATOM     11  C   UNL     1      11.427   3.893  -3.196  1.00  0.00     0.126 A 
ATOM     12  C   UNL     1      10.404   4.747  -2.784  1.00  0.00     0.040 A 
ATOM     13  F   UNL     1       9.644   0.733  -3.389  1.00  0.00    -0.206 F 
ATOM     14  F   UNL     1      12.660   4.375  -3.396  1.00  0.00    -0.207 F 
ENDBRANCH   1   7
BRANCH   4  15
ATOM     15  C   UNL     1       5.895  -0.711  -1.212  1.00  0.00     0.339 C 
ATOM     16  O   UNL     1       6.523  -1.147  -0.244  1.00  0.00    -0.246 OA
BRANCH  15  17
ATOM     17  O   UNL     1       4.950  -1.447  -1.857  1.00  0.00    -0.478 OA
ATOM     18  H   UNL     1       5.146  -1.535  -2.813  1.00  0.00     0.297 HD
ENDBRANCH  15  17
ENDBRANCH   4  15
BRANCH   5  19
ATOM     19  O   UNL     1       3.683   0.917  -1.947  1.00  0.00    -0.507 OA
ATOM     20  H   UNL     1       3.502   0.883  -0.991  1.00  0.00     0.293 HD
ENDBRANCH   5  19
TORSDOF 4
ENDMDL
MODEL 5
REMARK VINA RESULT:    -4.900      4.533      6.863
REMARK INTER + INTRA:          -6.303
REMARK INTER:                  -5.252
REMARK INTRA:                  -1.052
REMARK UNBOUND:                -0.544
REMARK SMILES O=C(O)c1cc(-c2ccc(F)cc2F)ccc1O
REMARK SMILES IDX 6 1 5 2 15 3 4 4 17 5 16 6 7 7 13 8 12 9 8 10 10 11 9 12
REMARK SMILES IDX 14 13 11 14 2 15 1 16 3 17 18 19
REMARK H PARENT 3 18 18 20
ROOT
ATOM      1  C   UNL     1       9.602   2.898  -2.860  1.00  0.00    -0.014 A 
ATOM      2  C   UNL     1      10.551   1.990  -3.328  1.00  0.00     0.028 A 
ATOM      3  C   UNL     1       9.954   4.232  -2.658  1.00  0.00     0.013 A 
ATOM      4  C   UNL     1      11.853   2.415  -3.593  1.00  0.00     0.102 A 
ATOM      5  C   UNL     1      12.205   3.749  -3.390  1.00  0.00     0.130 A 
ATOM      6  C   UNL     1      11.255   4.658  -2.922  1.00  0.00     0.048 A 
ENDROOT
BRANCH   1   7
ATOM      7  C   UNL     1       8.251   2.457  -2.584  1.00  0.00     0.018 A 
ATOM      8  C   UNL     1       7.961   1.792  -1.392  1.00  0.00     0.133 A 
ATOM      9  C   UNL     1       6.658   1.369  -1.130  1.00  0.00     0.079 A 
ATOM     10  C   UNL     1       7.239   2.699  -3.512  1.00  0.00     0.015 A 
ATOM     11  C   UNL     1       5.646   1.610  -2.058  1.00  0.00     0.126 A 
ATOM     12  C   UNL     1       5.937   2.276  -3.249  1.00  0.00     0.040 A 
ATOM     13  F   UNL     1       8.923   1.550  -0.491  1.00  0.00    -0.206 F 
ATOM     14  F   UNL     1       4.395   1.204  -1.808  1.00  0.00    -0.207 F 
ENDBRANCH   1   7
BRANCH   4  15
ATOM     15  C   UNL     1      12.829   1.451  -4.080  1.00  0.00     0.339 C 
ATOM     16  O   UNL     1      14.051   1.618  -4.097  1.00  0.00    -0.246 OA
BRANCH  15  17
ATOM     17  O   UNL     1      12.247   0.306  -4.531  1.00  0.00    -0.478 OA
ATOM     18  H   UNL     1      11.270   0.379  -4.555  1.00  0.00     0.297 HD
ENDBRANCH  15  17
ENDBRANCH   4  15
BRANCH   5  19
ATOM     19  O   UNL     1      13.472   4.185  -3.643  1.00  0.00    -0.507 OA
ATOM     20  H   UNL     1      13.908   3.559  -4.247  1.00  0.00     0.293 HD
ENDBRANCH   5  19
TORSDOF 4
ENDMDL
MODEL 6
REMARK VINA RESULT:    -4.899      4.007      6.229
REMARK INTER + INTRA:          -6.302
REMARK INTER:                  -5.240
REMARK INTRA:                  -1.062
REMARK UNBOUND:                -0.544
REMARK SMILES O=C(O)c1cc(-c2ccc(F)cc2F)ccc1O
REMARK SMILES IDX 6 1 5 2 15 3 4 4 17 5 16 6 7 7 13 8 12 9 8 10 10 11 9 12
REMARK SMILES IDX 14 13 11 14 2 15 1 16 3 17 18 19
REMARK H PARENT 3 18 18 20
ROOT
ATOM      1  C   UNL     1       9.472   3.110  -2.969  1.00  0.00    -0.014 A 
ATOM      2  C   UNL     1       9.837   4.435  -2.731  1.00  0.00     0.028 A 
ATOM      3  C   UNL     1      10.428   2.191  -3.400  1.00  0.00     0.013 A 
ATOM      4  C   UNL     1      11.157   4.841  -2.924  1.00  0.00     0.102 A 
ATOM      5  C   UNL     1      12.113   3.922  -3.355  1.00  0.00     0.130 A 
ATOM      6  C   UNL     1      11.749   2.596  -3.593  1.00  0.00     0.048 A 
ENDROOT
BRANCH   1   7
ATOM      7  C   UNL     1       8.102   2.689  -2.770  1.00  0.00     0.018 A 
ATOM      8  C   UNL     1       7.148   2.919  -3.761  1.00  0.00     0.133 A 
ATOM      9  C   UNL     1       5.828   2.511  -3.564  1.00  0.00     0.079 A 
ATOM     10  C   UNL     1       7.738   2.050  -1.585  1.00  0.00     0.015 A 
ATOM     11  C   UNL     1       5.464   1.873  -2.379  1.00  0.00     0.126 A 
ATOM     12  C   UNL     1       6.419   1.642  -1.390  1.00  0.00     0.040 A 
ATOM     13  F   UNL     1       7.481   3.535  -4.904  1.00  0.00    -0.206 F 
ATOM     14  F   UNL     1       4.197   1.482  -2.190  1.00  0.00    -0.207 F 
ENDBRANCH   1   7
BRANCH   4  15
ATOM     15  C   UNL     1      11.518   6.229  -2.670  1.00  0.00     0.339 C 
ATOM     16  O   UNL     1      12.567   6.771  -3.025  1.00  0.00    -0.246 OA
BRANCH  15  17
ATOM     17  O   UNL     1      10.553   6.897  -1.980  1.00  0.00    -0.478 OA
ATOM     18  H   UNL     1       9.661   6.531  -2.154  1.00  0.00     0.297 HD
ENDBRANCH  15  17
ENDBRANCH   4  15
BRANCH   5  19
ATOM     19  O   UNL     1      13.409   4.298  -3.550  1.00  0.00    -0.507 OA
ATOM     20  H   UNL     1      13.931   4.054  -2.766  1.00  0.00     0.293 HD
ENDBRANCH   5  19
TORSDOF 4
ENDMDL
