MODEL 1
REMARK VINA RESULT:    -4.734      0.000      0.000
REMARK INTER + INTRA:          -6.548
REMARK INTER:                  -5.840
REMARK INTRA:                  -0.707
REMARK UNBOUND:                -0.707
REMARK SMILES Cc1ccc(C(=O)c2cc(O)c(O)c([N+](=O)[O-])c2)cc1
REMARK SMILES IDX 8 1 18 2 9 3 14 4 10 5 12 6 6 7 7 8 5 9 4 10 19 11 3 12
REMARK SMILES IDX 20 13 2 14 1 15 15 16 17 17 16 18 11 19 13 21
REMARK H PARENT 11 20 13 22
ROOT
ATOM      1  C   UNL     1       7.204   1.366  -2.837  1.00  0.00     0.033 A 
ATOM      2  C   UNL     1       6.404   2.482  -2.926  1.00  0.00     0.102 A 
ATOM      3  C   UNL     1       6.740   0.149  -2.398  1.00  0.00     0.063 A 
ATOM      4  C   UNL     1       5.064   2.373  -2.556  1.00  0.00     0.315 A 
ATOM      5  C   UNL     1       5.400   0.040  -2.026  1.00  0.00     0.165 A 
ATOM      6  C   UNL     1       4.561   1.152  -2.106  1.00  0.00     0.237 A 
ENDROOT
BRANCH   1   7
ATOM      7  C   UNL     1       8.639   1.483  -3.234  1.00  0.00     0.193 C 
ATOM      8  O   UNL     1       9.184   0.472  -3.703  1.00  0.00    -0.289 OA
BRANCH   7   9
ATOM      9  C   UNL     1       9.391   2.719  -3.088  1.00  0.00     0.023 A 
ATOM     10  C   UNL     1      10.242   2.893  -1.996  1.00  0.00     0.012 A 
ATOM     11  C   UNL     1       9.262   3.731  -4.039  1.00  0.00     0.012 A 
ATOM     12  C   UNL     1      10.963   4.079  -1.856  1.00  0.00     0.004 A 
ATOM     13  C   UNL     1       9.983   4.917  -3.899  1.00  0.00     0.004 A 
ATOM     14  C   UNL     1      10.834   5.091  -2.808  1.00  0.00    -0.051 A 
ATOM     15  C   UNL     1      11.603   6.359  -2.657  1.00  0.00     0.044 C 
ENDBRANCH   7   9
ENDBRANCH   1   7
BRANCH   4  16
ATOM     16  N   UNL     1       4.224   3.518  -2.643  1.00  0.00     0.066 N 
ATOM     17  O   UNL     1       4.462   4.377  -3.525  1.00  0.00    -0.258 OA
ATOM     18  O   UNL     1       3.272   3.633  -1.836  1.00  0.00    -0.258 OA
ENDBRANCH   4  16
BRANCH   5  19
ATOM     19  O   UNL     1       4.923  -1.159  -1.589  1.00  0.00    -0.504 OA
ATOM     20  H   UNL     1       5.519  -1.871  -1.876  1.00  0.00     0.293 HD
ENDBRANCH   5  19
BRANCH   6  21
ATOM     21  O   UNL     1       3.252   1.033  -1.740  1.00  0.00    -0.500 OA
ATOM     22  H   UNL     1       2.692   1.026  -2.532  1.00  0.00     0.294 HD
ENDBRANCH   6  21
TORSDOF 5
ENDMDL
MODEL 2
REMARK VINA RESULT:    -4.733      1.980      3.541
REMARK INTER + INTRA:          -6.547
REMARK INTER:                  -5.834
REMARK INTRA:                  -0.712
REMARK UNBOUND:                -0.707
REMARK SMILES Cc1ccc(C(=O)c2cc(O)c(O)c([N+](=O)[O-])c2)cc1
REMARK SMILES IDX 8 1 18 2 9 3 14 4 10 5 12 6 6 7 7 8 5 9 4 10 19 11 3 12
REMARK SMILES IDX 20 13 2 14 1 15 15 16 17 17 16 18 11 19 13 21
REMARK H PARENT 11 20 13 22
ROOT
ATOM      1  C   UNL     1       6.846   2.910  -2.023  1.00  0.00     0.033 A 
ATOM      2  C   UNL     1       6.925   1.555  -1.800  1.00  0.00     0.102 A 
ATOM      3  C   UNL     1       5.651   3.576  -2.158  1.00  0.00     0.063 A 
ATOM      4  C   UNL     1       5.741   0.825  -1.706  1.00  0.00     0.315 A 
ATOM      5  C   UNL     1       4.466   2.845  -2.064  1.00  0.00     0.165 A 
ATOM      6  C   UNL     1       4.511   1.469  -1.837  1.00  0.00     0.237 A 
ENDROOT
BRANCH   1   7
ATOM      7  C   UNL     1       8.114   3.693  -2.125  1.00  0.00     0.193 C 
ATOM      8  O   UNL     1       8.084   4.876  -1.754  1.00  0.00    -0.289 OA
BRANCH   7   9
ATOM      9  C   UNL     1       9.348   3.116  -2.633  1.00  0.00     0.023 A 
ATOM     10  C   UNL     1       9.733   3.346  -3.954  1.00  0.00     0.012 A 
ATOM     11  C   UNL     1      10.147   2.333  -1.801  1.00  0.00     0.012 A 
ATOM     12  C   UNL     1      10.917   2.792  -4.442  1.00  0.00     0.004 A 
ATOM     13  C   UNL     1      11.332   1.779  -2.288  1.00  0.00     0.004 A 
ATOM     14  C   UNL     1      11.717   2.009  -3.609  1.00  0.00    -0.051 A 
ATOM     15  C   UNL     1      12.981   1.416  -4.131  1.00  0.00     0.044 C 
ENDBRANCH   7   9
ENDBRANCH   1   7
BRANCH   4  16
ATOM     16  N   UNL     1       5.807  -0.577  -1.475  1.00  0.00     0.066 N 
ATOM     17  O   UNL     1       6.771  -1.038  -0.817  1.00  0.00    -0.258 OA
ATOM     18  O   UNL     1       4.900  -1.310  -1.934  1.00  0.00    -0.258 OA
ENDBRANCH   4  16
BRANCH   5  19
ATOM     19  O   UNL     1       3.272   3.488  -2.194  1.00  0.00    -0.504 OA
ATOM     20  H   UNL     1       3.104   3.677  -3.133  1.00  0.00     0.293 HD
ENDBRANCH   5  19
BRANCH   6  21
ATOM     21  O   UNL     1       3.345   0.765  -1.747  1.00  0.00    -0.500 OA
ATOM     22  H   UNL     1       3.476  -0.129  -2.098  1.00  0.00     0.294 HD
ENDBRANCH   6  21
TORSDOF 5
ENDMDL
MODEL 3
REMARK VINA RESULT:    -4.020      3.612      4.537
REMARK INTER + INTRA:          -5.667
REMARK INTER:                  -4.659
REMARK INTRA:                  -1.008
REMARK UNBOUND:                -0.707
REMARK SMILES Cc1ccc(C(=O)c2cc(O)c(O)c([N+](=O)[O-])c2)cc1
REMARK SMILES IDX 8 1 18 2 9 3 14 4 10 5 12 6 6 7 7 8 5 9 4 10 19 11 3 12
REMARK SMILES IDX 20 13 2 14 1 15 15 16 17 17 16 18 11 19 13 21
REMARK H PARENT 11 20 13 22
ROOT
ATOM      1  C   UNL     1      10.349   2.569  -2.278  1.00  0.00     0.033 A 
ATOM      2  C   UNL     1       9.045   2.513  -2.713  1.00  0.00     0.102 A 
ATOM      3  C   UNL     1      10.754   2.064  -1.066  1.00  0.00     0.063 A 
ATOM      4  C   UNL     1       8.092   1.915  -1.888  1.00  0.00     0.315 A 
ATOM      5  C   UNL     1       9.801   1.467  -0.240  1.00  0.00     0.165 A 
ATOM      6  C   UNL     1       8.469   1.392  -0.652  1.00  0.00     0.237 A 
ENDROOT
BRANCH   1   7
ATOM      7  C   UNL     1      11.369   3.210  -3.162  1.00  0.00     0.193 C 
ATOM      8  O   UNL     1      11.358   4.447  -3.241  1.00  0.00    -0.289 OA
BRANCH   7   9
ATOM      9  C   UNL     1      12.348   2.437  -3.910  1.00  0.00     0.023 A 
ATOM     10  C   UNL     1      13.711   2.674  -3.729  1.00  0.00     0.012 A 
ATOM     11  C   UNL     1      11.924   1.457  -4.808  1.00  0.00     0.012 A 
ATOM     12  C   UNL     1      14.649   1.932  -4.446  1.00  0.00     0.004 A 
ATOM     13  C   UNL     1      12.862   0.715  -5.526  1.00  0.00     0.004 A 
ATOM     14  C   UNL     1      14.225   0.952  -5.345  1.00  0.00    -0.051 A 
ATOM     15  C   UNL     1      15.228   0.161  -6.113  1.00  0.00     0.044 C 
ENDBRANCH   7   9
ENDBRANCH   1   7
BRANCH   4  16
ATOM     16  N   UNL     1       6.741   1.848  -2.325  1.00  0.00     0.066 N 
ATOM     17  O   UNL     1       5.824   2.032  -1.488  1.00  0.00    -0.258 OA
ATOM     18  O   UNL     1       6.505   1.608  -3.532  1.00  0.00    -0.258 OA
ENDBRANCH   4  16
BRANCH   5  19
ATOM     19  O   UNL     1      10.184   0.961   0.965  1.00  0.00    -0.504 OA
ATOM     20  H   UNL     1      10.166  -0.010   0.931  1.00  0.00     0.293 HD
ENDBRANCH   5  19
BRANCH   6  21
ATOM     21  O   UNL     1       7.547   0.805   0.164  1.00  0.00    -0.500 OA
ATOM     22  H   UNL     1       7.166   0.031  -0.278  1.00  0.00     0.294 HD
ENDBRANCH   6  21
TORSDOF 5
ENDMDL
MODEL 4
REMARK VINA RESULT:    -4.010      2.386      4.088
REMARK INTER + INTRA:          -5.655
REMARK INTER:                  -4.669
REMARK INTRA:                  -0.986
REMARK UNBOUND:                -0.707
REMARK SMILES Cc1ccc(C(=O)c2cc(O)c(O)c([N+](=O)[O-])c2)cc1
REMARK SMILES IDX 8 1 18 2 9 3 14 4 10 5 12 6 6 7 7 8 5 9 4 10 19 11 3 12
REMARK SMILES IDX 20 13 2 14 1 15 15 16 17 17 16 18 11 19 13 21
REMARK H PARENT 11 20 13 22
ROOT
ATOM      1  C   UNL     1       9.768   3.716  -3.657  1.00  0.00     0.033 A 
ATOM      2  C   UNL     1       8.940   3.049  -2.785  1.00  0.00     0.102 A 
ATOM      3  C   UNL     1       9.337   4.209  -4.866  1.00  0.00     0.063 A 
ATOM      4  C   UNL     1       7.605   2.864  -3.142  1.00  0.00     0.315 A 
ATOM      5  C   UNL     1       8.001   4.023  -5.224  1.00  0.00     0.165 A 
ATOM      6  C   UNL     1       7.134   3.351  -4.361  1.00  0.00     0.237 A 
ENDROOT
BRANCH   1   7
ATOM      7  C   UNL     1      11.199   3.914  -3.275  1.00  0.00     0.193 C 
ATOM      8  O   UNL     1      11.960   2.943  -3.398  1.00  0.00    -0.289 OA
BRANCH   7   9
ATOM      9  C   UNL     1      11.704   5.183  -2.776  1.00  0.00     0.023 A 
ATOM     10  C   UNL     1      11.101   5.790  -1.674  1.00  0.00     0.012 A 
ATOM     11  C   UNL     1      12.792   5.794  -3.400  1.00  0.00     0.012 A 
ATOM     12  C   UNL     1      11.587   7.007  -1.196  1.00  0.00     0.004 A 
ATOM     13  C   UNL     1      13.278   7.012  -2.922  1.00  0.00     0.004 A 
ATOM     14  C   UNL     1      12.675   7.618  -1.819  1.00  0.00    -0.051 A 
ATOM     15  C   UNL     1      13.192   8.920  -1.309  1.00  0.00     0.044 C 
ENDBRANCH   7   9
ENDBRANCH   1   7
BRANCH   4  16
ATOM     16  N   UNL     1       6.737   2.176  -2.250  1.00  0.00     0.066 N 
ATOM     17  O   UNL     1       5.799   1.491  -2.724  1.00  0.00    -0.258 OA
ATOM     18  O   UNL     1       6.935   2.273  -1.016  1.00  0.00    -0.258 OA
ENDBRANCH   4  16
BRANCH   5  19
ATOM     19  O   UNL     1       7.556   4.505  -6.418  1.00  0.00    -0.504 OA
ATOM     20  H   UNL     1       7.523   5.475  -6.386  1.00  0.00     0.293 HD
ENDBRANCH   5  19
BRANCH   6  21
ATOM     21  O   UNL     1       5.830   3.177  -4.721  1.00  0.00    -0.500 OA
ATOM     22  H   UNL     1       5.250   3.472  -4.002  1.00  0.00     0.294 HD
ENDBRANCH   6  21
TORSDOF 5
ENDMDL
MODEL 5
REMARK VINA RESULT:    -3.848      3.216      4.405
REMARK INTER + INTRA:          -5.455
REMARK INTER:                  -4.592
REMARK INTRA:                  -0.863
REMARK UNBOUND:                -0.707
REMARK SMILES Cc1ccc(C(=O)c2cc(O)c(O)c([N+](=O)[O-])c2)cc1
REMARK SMILES IDX 8 1 18 2 9 3 14 4 10 5 12 6 6 7 7 8 5 9 4 10 19 11 3 12
REMARK SMILES IDX 20 13 2 14 1 15 15 16 17 17 16 18 11 19 13 21
REMARK H PARENT 11 20 13 22
ROOT
ATOM      1  C   UNL     1       9.501   3.037  -3.398  1.00  0.00     0.033 A 
ATOM      2  C   UNL     1       8.477   2.471  -2.674  1.00  0.00     0.102 A 
ATOM      3  C   UNL     1       9.296   3.720  -4.573  1.00  0.00     0.063 A 
ATOM      4  C   UNL     1       7.173   2.598  -3.152  1.00  0.00     0.315 A 
ATOM      5  C   UNL     1       7.991   3.846  -5.052  1.00  0.00     0.165 A 
ATOM      6  C   UNL     1       6.929   3.286  -4.341  1.00  0.00     0.237 A 
ENDROOT
BRANCH   1   7
ATOM      7  C   UNL     1      10.898   2.901  -2.886  1.00  0.00     0.193 C 
ATOM      8  O   UNL     1      11.132   3.338  -1.749  1.00  0.00    -0.289 OA
BRANCH   7   9
ATOM      9  C   UNL     1      11.958   2.285  -3.668  1.00  0.00     0.023 A 
ATOM     10  C   UNL     1      13.255   2.795  -3.608  1.00  0.00     0.012 A 
ATOM     11  C   UNL     1      11.679   1.184  -4.476  1.00  0.00     0.012 A 
ATOM     12  C   UNL     1      14.272   2.204  -4.358  1.00  0.00     0.004 A 
ATOM     13  C   UNL     1      12.696   0.592  -5.226  1.00  0.00     0.004 A 
ATOM     14  C   UNL     1      13.993   1.102  -5.167  1.00  0.00    -0.051 A 
ATOM     15  C   UNL     1      15.080   0.472  -5.969  1.00  0.00     0.044 C 
ENDBRANCH   7   9
ENDBRANCH   1   7
BRANCH   4  16
ATOM     16  N   UNL     1       6.104   2.020  -2.414  1.00  0.00     0.066 N 
ATOM     17  O   UNL     1       5.170   1.460  -3.038  1.00  0.00    -0.258 OA
ATOM     18  O   UNL     1       6.126   2.086  -1.163  1.00  0.00    -0.258 OA
ENDBRANCH   4  16
BRANCH   5  19
ATOM     19  O   UNL     1       7.768   4.521  -6.215  1.00  0.00    -0.504 OA
ATOM     20  H   UNL     1       7.319   3.937  -6.849  1.00  0.00     0.293 HD
ENDBRANCH   5  19
BRANCH   6  21
ATOM     21  O   UNL     1       5.658   3.416  -4.820  1.00  0.00    -0.500 OA
ATOM     22  H   UNL     1       5.025   3.113  -4.150  1.00  0.00     0.294 HD
ENDBRANCH   6  21
TORSDOF 5
ENDMDL
MODEL 6
REMARK VINA RESULT:    -3.834      1.292      2.924
REMARK INTER + INTRA:          -5.437
REMARK INTER:                  -4.802
REMARK INTRA:                  -0.635
REMARK UNBOUND:                -0.707
REMARK SMILES Cc1ccc(C(=O)c2cc(O)c(O)c([N+](=O)[O-])c2)cc1
REMARK SMILES IDX 8 1 18 2 9 3 14 4 10 5 12 6 6 7 7 8 5 9 4 10 19 11 3 12
REMARK SMILES IDX 20 13 2 14 1 15 15 16 17 17 16 18 11 19 13 21
REMARK H PARENT 11 20 13 22
ROOT
ATOM      1  C   UNL     1       7.692   1.785  -2.910  1.00  0.00     0.033 A 
ATOM      2  C   UNL     1       7.300   0.627  -2.279  1.00  0.00     0.102 A 
ATOM      3  C   UNL     1       6.810   2.781  -3.257  1.00  0.00     0.063 A 
ATOM      4  C   UNL     1       5.949   0.457  -1.976  1.00  0.00     0.315 A 
ATOM      5  C   UNL     1       5.459   2.611  -2.955  1.00  0.00     0.165 A 
ATOM      6  C   UNL     1       5.028   1.448  -2.314  1.00  0.00     0.237 A 
ENDROOT
BRANCH   1   7
ATOM      7  C   UNL     1       9.139   1.967  -3.235  1.00  0.00     0.193 C 
ATOM      8  O   UNL     1       9.746   0.989  -3.696  1.00  0.00    -0.289 OA
BRANCH   7   9
ATOM      9  C   UNL     1       9.831   3.229  -3.028  1.00  0.00     0.023 A 
ATOM     10  C   UNL     1       9.714   4.251  -3.969  1.00  0.00     0.012 A 
ATOM     11  C   UNL     1      10.613   3.417  -1.888  1.00  0.00     0.012 A 
ATOM     12  C   UNL     1      10.378   5.462  -3.770  1.00  0.00     0.004 A 
ATOM     13  C   UNL     1      11.278   4.627  -1.688  1.00  0.00     0.004 A 
ATOM     14  C   UNL     1      11.160   5.650  -2.629  1.00  0.00    -0.051 A 
ATOM     15  C   UNL     1      11.871   6.943  -2.418  1.00  0.00     0.044 C 
ENDBRANCH   7   9
ENDBRANCH   1   7
BRANCH   4  16
ATOM     16  N   UNL     1       5.529  -0.734  -1.323  1.00  0.00     0.066 N 
ATOM     17  O   UNL     1       6.002  -1.005  -0.193  1.00  0.00    -0.258 OA
ATOM     18  O   UNL     1       4.698  -1.478  -1.895  1.00  0.00    -0.258 OA
ENDBRANCH   4  16
BRANCH   5  19
ATOM     19  O   UNL     1       4.571   3.588  -3.290  1.00  0.00    -0.504 OA
ATOM     20  H   UNL     1       4.080   3.866  -2.500  1.00  0.00     0.293 HD
ENDBRANCH   5  19
BRANCH   6  21
ATOM     21  O   UNL     1       3.704   1.294  -2.023  1.00  0.00    -0.500 OA
ATOM     22  H   UNL     1       3.568   1.379  -1.066  1.00  0.00     0.294 HD
ENDBRANCH   6  21
TORSDOF 5
ENDMDL
MODEL 7
REMARK VINA RESULT:    -3.830      2.199      3.636
REMARK INTER + INTRA:          -5.433
REMARK INTER:                  -4.507
REMARK INTRA:                  -0.926
REMARK UNBOUND:                -0.707
REMARK SMILES Cc1ccc(C(=O)c2cc(O)c(O)c([N+](=O)[O-])c2)cc1
REMARK SMILES IDX 8 1 18 2 9 3 14 4 10 5 12 6 6 7 7 8 5 9 4 10 19 11 3 12
REMARK SMILES IDX 20 13 2 14 1 15 15 16 17 17 16 18 11 19 13 21
REMARK H PARENT 11 20 13 22
ROOT
ATOM      1  C   UNL     1       9.648   3.028  -2.376  1.00  0.00     0.033 A 
ATOM      2  C   UNL     1       8.302   2.850  -2.594  1.00  0.00     0.102 A 
ATOM      3  C   UNL     1      10.322   2.429  -1.338  1.00  0.00     0.063 A 
ATOM      4  C   UNL     1       7.589   2.024  -1.725  1.00  0.00     0.315 A 
ATOM      5  C   UNL     1       9.609   1.603  -0.468  1.00  0.00     0.165 A 
ATOM      6  C   UNL     1       8.242   1.400  -0.662  1.00  0.00     0.237 A 
ENDROOT
BRANCH   1   7
ATOM      7  C   UNL     1      10.412   3.913  -3.306  1.00  0.00     0.193 C 
ATOM      8  O   UNL     1      10.409   3.610  -4.509  1.00  0.00    -0.289 OA
BRANCH   7   9
ATOM      9  C   UNL     1      11.137   5.086  -2.847  1.00  0.00     0.023 A 
ATOM     10  C   UNL     1      12.406   5.365  -3.356  1.00  0.00     0.012 A 
ATOM     11  C   UNL     1      10.564   5.934  -1.899  1.00  0.00     0.012 A 
ATOM     12  C   UNL     1      13.101   6.491  -2.915  1.00  0.00     0.004 A 
ATOM     13  C   UNL     1      11.260   7.060  -1.458  1.00  0.00     0.004 A 
ATOM     14  C   UNL     1      12.529   7.339  -1.967  1.00  0.00    -0.051 A 
ATOM     15  C   UNL     1      13.273   8.542  -1.495  1.00  0.00     0.044 C 
ENDBRANCH   7   9
ENDBRANCH   1   7
BRANCH   4  16
ATOM     16  N   UNL     1       6.197   1.829  -1.938  1.00  0.00     0.066 N 
ATOM     17  O   UNL     1       5.681   0.733  -1.612  1.00  0.00    -0.258 OA
ATOM     18  O   UNL     1       5.526   2.759  -2.444  1.00  0.00    -0.258 OA
ENDBRANCH   4  16
BRANCH   5  19
ATOM     19  O   UNL     1      10.261   1.001   0.566  1.00  0.00    -0.504 OA
ATOM     20  H   UNL     1       9.612   0.660   1.204  1.00  0.00     0.293 HD
ENDBRANCH   5  19
BRANCH   6  21
ATOM     21  O   UNL     1       7.556   0.590   0.195  1.00  0.00    -0.500 OA
ATOM     22  H   UNL     1       7.437   1.041   1.046  1.00  0.00     0.294 HD
ENDBRANCH   6  21
TORSDOF 5
ENDMDL
MODEL 8
REMARK VINA RESULT:    -3.806      1.962      2.569
REMARK INTER + INTRA:          -5.403
REMARK INTER:                  -4.764
REMARK INTRA:                  -0.639
REMARK UNBOUND:                -0.707
REMARK SMILES Cc1ccc(C(=O)c2cc(O)c(O)c([N+](=O)[O-])c2)cc1
REMARK SMILES IDX 8 1 18 2 9 3 14 4 10 5 12 6 6 7 7 8 5 9 4 10 19 11 3 12
REMARK SMILES IDX 20 13 2 14 1 15 15 16 17 17 16 18 11 19 13 21
REMARK H PARENT 11 20 13 22
ROOT
ATOM      1  C   UNL     1       7.454   2.879  -2.153  1.00  0.00     0.033 A 
ATOM      2  C   UNL     1       6.287   3.517  -2.502  1.00  0.00     0.102 A 
ATOM      3  C   UNL     1       7.483   1.601  -1.647  1.00  0.00     0.063 A 
ATOM      4  C   UNL     1       5.080   2.838  -2.337  1.00  0.00     0.315 A 
ATOM      5  C   UNL     1       6.276   0.922  -1.480  1.00  0.00     0.165 A 
ATOM      6  C   UNL     1       5.074   1.540  -1.826  1.00  0.00     0.237 A 
ENDROOT
BRANCH   1   7
ATOM      7  C   UNL     1       8.747   3.606  -2.330  1.00  0.00     0.193 C 
ATOM      8  O   UNL     1       8.781   4.798  -1.990  1.00  0.00    -0.289 OA
BRANCH   7   9
ATOM      9  C   UNL     1       9.933   2.966  -2.876  1.00  0.00     0.023 A 
ATOM     10  C   UNL     1      10.256   3.128  -4.224  1.00  0.00     0.012 A 
ATOM     11  C   UNL     1      10.750   2.191  -2.052  1.00  0.00     0.012 A 
ATOM     12  C   UNL     1      11.393   2.514  -4.747  1.00  0.00     0.004 A 
ATOM     13  C   UNL     1      11.888   1.577  -2.575  1.00  0.00     0.004 A 
ATOM     14  C   UNL     1      12.210   1.738  -3.923  1.00  0.00    -0.051 A 
ATOM     15  C   UNL     1      13.426   1.082  -4.483  1.00  0.00     0.044 C 
ENDBRANCH   7   9
ENDBRANCH   1   7
BRANCH   4  16
ATOM     16  N   UNL     1       3.865   3.485  -2.694  1.00  0.00     0.066 N 
ATOM     17  O   UNL     1       3.698   3.845  -3.884  1.00  0.00    -0.258 OA
ATOM     18  O   UNL     1       2.998   3.676  -1.810  1.00  0.00    -0.258 OA
ENDBRANCH   4  16
BRANCH   5  19
ATOM     19  O   UNL     1       6.286  -0.346  -0.981  1.00  0.00    -0.504 OA
ATOM     20  H   UNL     1       5.701  -0.395  -0.206  1.00  0.00     0.293 HD
ENDBRANCH   5  19
BRANCH   6  21
ATOM     21  O   UNL     1       3.900   0.865  -1.659  1.00  0.00    -0.500 OA
ATOM     22  H   UNL     1       3.822   0.568  -0.739  1.00  0.00     0.294 HD
ENDBRANCH   6  21
TORSDOF 5
ENDMDL
MODEL 9
REMARK VINA RESULT:    -3.674      3.675      6.800
REMARK INTER + INTRA:          -5.240
REMARK INTER:                  -4.267
REMARK INTRA:                  -0.973
REMARK UNBOUND:                -0.707
REMARK SMILES Cc1ccc(C(=O)c2cc(O)c(O)c([N+](=O)[O-])c2)cc1
REMARK SMILES IDX 8 1 18 2 9 3 14 4 10 5 12 6 6 7 7 8 5 9 4 10 19 11 3 12
REMARK SMILES IDX 20 13 2 14 1 15 15 16 17 17 16 18 11 19 13 21
REMARK H PARENT 11 20 13 22
ROOT
ATOM      1  C   UNL     1       9.825   3.565  -3.531  1.00  0.00     0.033 A 
ATOM      2  C   UNL     1      10.227   4.825  -3.152  1.00  0.00     0.102 A 
ATOM      3  C   UNL     1      10.710   2.574  -3.882  1.00  0.00     0.063 A 
ATOM      4  C   UNL     1      11.592   5.108  -3.121  1.00  0.00     0.315 A 
ATOM      5  C   UNL     1      12.076   2.857  -3.852  1.00  0.00     0.165 A 
ATOM      6  C   UNL     1      12.517   4.125  -3.470  1.00  0.00     0.237 A 
ENDROOT
BRANCH   1   7
ATOM      7  C   UNL     1       8.362   3.261  -3.565  1.00  0.00     0.193 C 
ATOM      8  O   UNL     1       7.639   4.021  -4.227  1.00  0.00    -0.289 OA
BRANCH   7   9
ATOM      9  C   UNL     1       7.785   2.128  -2.860  1.00  0.00     0.023 A 
ATOM     10  C   UNL     1       6.955   1.235  -3.538  1.00  0.00     0.012 A 
ATOM     11  C   UNL     1       8.061   1.934  -1.507  1.00  0.00     0.012 A 
ATOM     12  C   UNL     1       6.402   0.148  -2.861  1.00  0.00     0.004 A 
ATOM     13  C   UNL     1       7.508   0.847  -0.830  1.00  0.00     0.004 A 
ATOM     14  C   UNL     1       6.678  -0.047  -1.507  1.00  0.00    -0.051 A 
ATOM     15  C   UNL     1       6.085  -1.208  -0.785  1.00  0.00     0.044 C 
ENDBRANCH   7   9
ENDBRANCH   1   7
BRANCH   4  16
ATOM     16  N   UNL     1      12.022   6.406  -2.730  1.00  0.00     0.066 N 
ATOM     17  O   UNL     1      13.072   6.874  -3.235  1.00  0.00    -0.258 OA
ATOM     18  O   UNL     1      11.341   7.044  -1.894  1.00  0.00    -0.258 OA
ENDBRANCH   4  16
BRANCH   5  19
ATOM     19  O   UNL     1      12.968   1.886  -4.196  1.00  0.00    -0.504 OA
ATOM     20  H   UNL     1      13.825   2.292  -4.407  1.00  0.00     0.293 HD
ENDBRANCH   5  19
BRANCH   6  21
ATOM     21  O   UNL     1      13.855   4.390  -3.444  1.00  0.00    -0.500 OA
ATOM     22  H   UNL     1      14.130   4.765  -4.295  1.00  0.00     0.294 HD
ENDBRANCH   6  21
TORSDOF 5
ENDMDL
