MODEL 1
REMARK VINA RESULT:    -6.872      0.000      0.000
REMARK INTER + INTRA:          -8.656
REMARK INTER:                  -8.077
REMARK INTRA:                  -0.579
REMARK UNBOUND:                -0.579
REMARK SMILES O=C(O)c1cc(-c2ccc(F)cc2F)ccc1O
REMARK SMILES IDX 6 1 5 2 15 3 4 4 17 5 16 6 7 7 13 8 12 9 8 10 10 11 9 12
REMARK SMILES IDX 14 13 11 14 2 15 1 16 3 17 18 19
REMARK H PARENT 3 18 18 20
ROOT
ATOM      1  C   UNL     1       1.870   5.993   3.463  1.00  0.00    -0.014 A 
ATOM      2  C   UNL     1       2.897   5.053   3.378  1.00  0.00     0.028 A 
ATOM      3  C   UNL     1       0.708   5.827   2.710  1.00  0.00     0.013 A 
ATOM      4  C   UNL     1       2.762   3.946   2.540  1.00  0.00     0.102 A 
ATOM      5  C   UNL     1       1.600   3.780   1.787  1.00  0.00     0.130 A 
ATOM      6  C   UNL     1       0.572   4.721   1.872  1.00  0.00     0.048 A 
ENDROOT
BRANCH   1   7
ATOM      7  C   UNL     1       2.010   7.142   4.332  1.00  0.00     0.018 A 
ATOM      8  C   UNL     1       2.482   6.982   5.635  1.00  0.00     0.133 A 
ATOM      9  C   UNL     1       2.615   8.092   6.469  1.00  0.00     0.079 A 
ATOM     10  C   UNL     1       1.674   8.412   3.863  1.00  0.00     0.015 A 
ATOM     11  C   UNL     1       2.278   9.362   6.000  1.00  0.00     0.126 A 
ATOM     12  C   UNL     1       1.807   9.521   4.697  1.00  0.00     0.040 A 
ATOM     13  F   UNL     1       2.808   5.768   6.102  1.00  0.00    -0.206 F 
ATOM     14  F   UNL     1       2.405  10.428   6.800  1.00  0.00    -0.207 F 
ENDBRANCH   1   7
BRANCH   4  15
ATOM     15  C   UNL     1       3.845   2.975   2.466  1.00  0.00     0.339 C 
ATOM     16  O   UNL     1       4.410   2.615   1.431  1.00  0.00    -0.246 OA
BRANCH  15  17
ATOM     17  O   UNL     1       4.188   2.487   3.689  1.00  0.00    -0.478 OA
ATOM     18  H   UNL     1       3.399   2.260   4.225  1.00  0.00     0.297 HD
ENDBRANCH  15  17
ENDBRANCH   4  15
BRANCH   5  19
ATOM     19  O   UNL     1       1.447   2.705   0.962  1.00  0.00    -0.507 OA
ATOM     20  H   UNL     1       1.556   2.995   0.040  1.00  0.00     0.293 HD
ENDBRANCH   5  19
TORSDOF 4
ENDMDL
MODEL 2
REMARK VINA RESULT:    -6.864      1.138      1.615
REMARK INTER + INTRA:          -8.647
REMARK INTER:                  -8.072
REMARK INTRA:                  -0.575
REMARK UNBOUND:                -0.579
REMARK SMILES O=C(O)c1cc(-c2ccc(F)cc2F)ccc1O
REMARK SMILES IDX 6 1 5 2 15 3 4 4 17 5 16 6 7 7 13 8 12 9 8 10 10 11 9 12
REMARK SMILES IDX 14 13 11 14 2 15 1 16 3 17 18 19
REMARK H PARENT 3 18 18 20
ROOT
ATOM      1  C   UNL     1       1.849   6.013   3.401  1.00  0.00    -0.014 A 
ATOM      2  C   UNL     1       2.878   5.074   3.332  1.00  0.00     0.028 A 
ATOM      3  C   UNL     1       0.687   5.831   2.652  1.00  0.00     0.013 A 
ATOM      4  C   UNL     1       2.745   3.952   2.513  1.00  0.00     0.102 A 
ATOM      5  C   UNL     1       1.582   3.771   1.763  1.00  0.00     0.130 A 
ATOM      6  C   UNL     1       0.553   4.710   1.833  1.00  0.00     0.048 A 
ENDROOT
BRANCH   1   7
ATOM      7  C   UNL     1       1.987   7.177   4.250  1.00  0.00     0.018 A 
ATOM      8  C   UNL     1       1.671   8.444   3.758  1.00  0.00     0.133 A 
ATOM      9  C   UNL     1       1.806   9.564   4.579  1.00  0.00     0.079 A 
ATOM     10  C   UNL     1       2.436   7.030   5.562  1.00  0.00     0.015 A 
ATOM     11  C   UNL     1       2.256   9.417   5.891  1.00  0.00     0.126 A 
ATOM     12  C   UNL     1       2.570   8.150   6.382  1.00  0.00     0.040 A 
ATOM     13  F   UNL     1       1.241   8.603   2.498  1.00  0.00    -0.206 F 
ATOM     14  F   UNL     1       2.385  10.491   6.679  1.00  0.00    -0.207 F 
ENDBRANCH   1   7
BRANCH   4  15
ATOM     15  C   UNL     1       3.830   2.983   2.454  1.00  0.00     0.339 C 
ATOM     16  O   UNL     1       4.405   2.617   1.427  1.00  0.00    -0.246 OA
BRANCH  15  17
ATOM     17  O   UNL     1       4.163   2.503   3.683  1.00  0.00    -0.478 OA
ATOM     18  H   UNL     1       3.567   1.778   3.965  1.00  0.00     0.297 HD
ENDBRANCH  15  17
ENDBRANCH   4  15
BRANCH   5  19
ATOM     19  O   UNL     1       1.432   2.681   0.958  1.00  0.00    -0.507 OA
ATOM     20  H   UNL     1       1.119   2.974   0.084  1.00  0.00     0.293 HD
ENDBRANCH   5  19
TORSDOF 4
ENDMDL
MODEL 3
REMARK VINA RESULT:    -6.859      1.653      3.154
REMARK INTER + INTRA:          -8.640
REMARK INTER:                  -8.071
REMARK INTRA:                  -0.570
REMARK UNBOUND:                -0.579
REMARK SMILES O=C(O)c1cc(-c2ccc(F)cc2F)ccc1O
REMARK SMILES IDX 6 1 5 2 15 3 4 4 17 5 16 6 7 7 13 8 12 9 8 10 10 11 9 12
REMARK SMILES IDX 14 13 11 14 2 15 1 16 3 17 18 19
REMARK H PARENT 3 18 18 20
ROOT
ATOM      1  C   UNL     1       1.893   6.040   3.405  1.00  0.00    -0.014 A 
ATOM      2  C   UNL     1       0.726   5.909   2.654  1.00  0.00     0.028 A 
ATOM      3  C   UNL     1       2.899   5.079   3.305  1.00  0.00     0.013 A 
ATOM      4  C   UNL     1       0.564   4.816   1.801  1.00  0.00     0.102 A 
ATOM      5  C   UNL     1       1.570   3.855   1.701  1.00  0.00     0.130 A 
ATOM      6  C   UNL     1       2.738   3.987   2.453  1.00  0.00     0.048 A 
ENDROOT
BRANCH   1   7
ATOM      7  C   UNL     1       2.061   7.172   4.291  1.00  0.00     0.018 A 
ATOM      8  C   UNL     1       1.740   8.458   3.853  1.00  0.00     0.133 A 
ATOM      9  C   UNL     1       1.904   9.546   4.710  1.00  0.00     0.079 A 
ATOM     10  C   UNL     1       2.545   6.976   5.584  1.00  0.00     0.015 A 
ATOM     11  C   UNL     1       2.388   9.350   6.003  1.00  0.00     0.126 A 
ATOM     12  C   UNL     1       2.708   8.065   6.440  1.00  0.00     0.040 A 
ATOM     13  F   UNL     1       1.276   8.664   2.612  1.00  0.00    -0.206 F 
ATOM     14  F   UNL     1       2.545  10.395   6.826  1.00  0.00    -0.207 F 
ENDBRANCH   1   7
BRANCH   4  15
ATOM     15  C   UNL     1      -0.662   4.698   1.024  1.00  0.00     0.339 C 
ATOM     16  O   UNL     1      -1.413   3.719   1.020  1.00  0.00    -0.246 OA
BRANCH  15  17
ATOM     17  O   UNL     1      -0.912   5.808   0.278  1.00  0.00    -0.478 OA
ATOM     18  H   UNL     1      -0.090   6.187  -0.098  1.00  0.00     0.297 HD
ENDBRANCH  15  17
ENDBRANCH   4  15
BRANCH   5  19
ATOM     19  O   UNL     1       1.432   2.781   0.873  1.00  0.00    -0.507 OA
ATOM     20  H   UNL     1       2.162   2.780   0.230  1.00  0.00     0.293 HD
ENDBRANCH   5  19
TORSDOF 4
ENDMDL
MODEL 4
REMARK VINA RESULT:    -6.852      1.235      2.715
REMARK INTER + INTRA:          -8.633
REMARK INTER:                  -8.066
REMARK INTRA:                  -0.567
REMARK UNBOUND:                -0.579
REMARK SMILES O=C(O)c1cc(-c2ccc(F)cc2F)ccc1O
REMARK SMILES IDX 6 1 5 2 15 3 4 4 17 5 16 6 7 7 13 8 12 9 8 10 10 11 9 12
REMARK SMILES IDX 14 13 11 14 2 15 1 16 3 17 18 19
REMARK H PARENT 3 18 18 20
ROOT
ATOM      1  C   UNL     1       1.906   5.983   3.427  1.00  0.00    -0.014 A 
ATOM      2  C   UNL     1       0.738   5.869   2.674  1.00  0.00     0.028 A 
ATOM      3  C   UNL     1       2.907   5.018   3.311  1.00  0.00     0.013 A 
ATOM      4  C   UNL     1       0.570   4.791   1.805  1.00  0.00     0.102 A 
ATOM      5  C   UNL     1       1.571   3.826   1.689  1.00  0.00     0.130 A 
ATOM      6  C   UNL     1       2.740   3.940   2.442  1.00  0.00     0.048 A 
ENDROOT
BRANCH   1   7
ATOM      7  C   UNL     1       2.081   7.100   4.329  1.00  0.00     0.018 A 
ATOM      8  C   UNL     1       2.543   6.886   5.629  1.00  0.00     0.133 A 
ATOM      9  C   UNL     1       2.709   7.966   6.496  1.00  0.00     0.079 A 
ATOM     10  C   UNL     1       1.787   8.393   3.898  1.00  0.00     0.015 A 
ATOM     11  C   UNL     1       2.415   9.259   6.064  1.00  0.00     0.126 A 
ATOM     12  C   UNL     1       1.954   9.472   4.765  1.00  0.00     0.040 A 
ATOM     13  F   UNL     1       2.827   5.649   6.060  1.00  0.00    -0.206 F 
ATOM     14  F   UNL     1       2.575  10.296   6.896  1.00  0.00    -0.207 F 
ENDBRANCH   1   7
BRANCH   4  15
ATOM     15  C   UNL     1      -0.658   4.691   1.027  1.00  0.00     0.339 C 
ATOM     16  O   UNL     1      -1.418   3.720   1.016  1.00  0.00    -0.246 OA
BRANCH  15  17
ATOM     17  O   UNL     1      -0.896   5.809   0.289  1.00  0.00    -0.478 OA
ATOM     18  H   UNL     1      -1.289   5.593  -0.583  1.00  0.00     0.297 HD
ENDBRANCH  15  17
ENDBRANCH   4  15
BRANCH   5  19
ATOM     19  O   UNL     1       1.426   2.766   0.845  1.00  0.00    -0.507 OA
ATOM     20  H   UNL     1       1.899   2.000   1.214  1.00  0.00     0.293 HD
ENDBRANCH   5  19
TORSDOF 4
ENDMDL
MODEL 5
REMARK VINA RESULT:    -5.631      1.285      1.369
REMARK INTER + INTRA:          -7.197
REMARK INTER:                  -6.661
REMARK INTRA:                  -0.536
REMARK UNBOUND:                -0.579
REMARK SMILES O=C(O)c1cc(-c2ccc(F)cc2F)ccc1O
REMARK SMILES IDX 6 1 5 2 15 3 4 4 17 5 16 6 7 7 13 8 12 9 8 10 10 11 9 12
REMARK SMILES IDX 14 13 11 14 2 15 1 16 3 17 18 19
REMARK H PARENT 3 18 18 20
ROOT
ATOM      1  C   UNL     1       1.912   6.420   4.054  1.00  0.00    -0.014 A 
ATOM      2  C   UNL     1       2.986   5.532   4.056  1.00  0.00     0.028 A 
ATOM      3  C   UNL     1       0.792   6.159   3.264  1.00  0.00     0.013 A 
ATOM      4  C   UNL     1       2.943   4.382   3.267  1.00  0.00     0.102 A 
ATOM      5  C   UNL     1       1.824   4.121   2.476  1.00  0.00     0.130 A 
ATOM      6  C   UNL     1       0.748   5.010   2.475  1.00  0.00     0.048 A 
ENDROOT
BRANCH   1   7
ATOM      7  C   UNL     1       1.957   7.613   4.872  1.00  0.00     0.018 A 
ATOM      8  C   UNL     1       3.155   8.310   5.028  1.00  0.00     0.133 A 
ATOM      9  C   UNL     1       3.194   9.460   5.817  1.00  0.00     0.079 A 
ATOM     10  C   UNL     1       0.799   8.066   5.503  1.00  0.00     0.015 A 
ATOM     11  C   UNL     1       2.036   9.913   6.448  1.00  0.00     0.126 A 
ATOM     12  C   UNL     1       0.838   9.215   6.291  1.00  0.00     0.040 A 
ATOM     13  F   UNL     1       4.278   7.887   4.430  1.00  0.00    -0.206 F 
ATOM     14  F   UNL     1       2.073  11.016   7.206  1.00  0.00    -0.207 F 
ENDBRANCH   1   7
BRANCH   4  15
ATOM     15  C   UNL     1       4.076   3.467   3.283  1.00  0.00     0.339 C 
ATOM     16  O   UNL     1       5.247   3.776   3.049  1.00  0.00    -0.246 OA
BRANCH  15  17
ATOM     17  O   UNL     1       3.709   2.193   3.592  1.00  0.00    -0.478 OA
ATOM     18  H   UNL     1       4.438   1.556   3.438  1.00  0.00     0.297 HD
ENDBRANCH  15  17
ENDBRANCH   4  15
BRANCH   5  19
ATOM     19  O   UNL     1       1.761   3.003   1.699  1.00  0.00    -0.507 OA
ATOM     20  H   UNL     1       2.013   3.235   0.788  1.00  0.00     0.293 HD
ENDBRANCH   5  19
TORSDOF 4
ENDMDL
MODEL 6
REMARK VINA RESULT:    -5.620      1.899      3.180
REMARK INTER + INTRA:          -7.184
REMARK INTER:                  -6.641
REMARK INTRA:                  -0.544
REMARK UNBOUND:                -0.579
REMARK SMILES O=C(O)c1cc(-c2ccc(F)cc2F)ccc1O
REMARK SMILES IDX 6 1 5 2 15 3 4 4 17 5 16 6 7 7 13 8 12 9 8 10 10 11 9 12
REMARK SMILES IDX 14 13 11 14 2 15 1 16 3 17 18 19
REMARK H PARENT 3 18 18 20
ROOT
ATOM      1  C   UNL     1       1.994   6.692   3.635  1.00  0.00    -0.014 A 
ATOM      2  C   UNL     1       0.797   6.677   2.921  1.00  0.00     0.028 A 
ATOM      3  C   UNL     1       2.921   5.664   3.465  1.00  0.00     0.013 A 
ATOM      4  C   UNL     1       0.525   5.633   2.036  1.00  0.00     0.102 A 
ATOM      5  C   UNL     1       1.453   4.605   1.865  1.00  0.00     0.130 A 
ATOM      6  C   UNL     1       2.651   4.621   2.580  1.00  0.00     0.048 A 
ENDROOT
BRANCH   1   7
ATOM      7  C   UNL     1       2.275   7.773   4.555  1.00  0.00     0.018 A 
ATOM      8  C   UNL     1       1.253   8.309   5.340  1.00  0.00     0.133 A 
ATOM      9  C   UNL     1       1.529   9.352   6.225  1.00  0.00     0.079 A 
ATOM     10  C   UNL     1       3.571   8.279   4.657  1.00  0.00     0.015 A 
ATOM     11  C   UNL     1       2.824   9.858   6.326  1.00  0.00     0.126 A 
ATOM     12  C   UNL     1       3.845   9.321   5.542  1.00  0.00     0.040 A 
ATOM     13  F   UNL     1       0.002   7.837   5.252  1.00  0.00    -0.206 F 
ATOM     14  F   UNL     1       3.089  10.859   7.175  1.00  0.00    -0.207 F 
ENDBRANCH   1   7
BRANCH   4  15
ATOM     15  C   UNL     1      -0.731   5.635   1.299  1.00  0.00     0.339 C 
ATOM     16  O   UNL     1      -1.855   5.691   1.804  1.00  0.00    -0.246 OA
BRANCH  15  17
ATOM     17  O   UNL     1      -0.542   5.570  -0.047  1.00  0.00    -0.478 OA
ATOM     18  H   UNL     1       0.385   5.349  -0.275  1.00  0.00     0.297 HD
ENDBRANCH  15  17
ENDBRANCH   4  15
BRANCH   5  19
ATOM     19  O   UNL     1       1.207   3.577   1.005  1.00  0.00    -0.507 OA
ATOM     20  H   UNL     1       1.927   3.531   0.351  1.00  0.00     0.293 HD
ENDBRANCH   5  19
TORSDOF 4
ENDMDL
MODEL 7
REMARK VINA RESULT:    -5.361      4.121      6.341
REMARK INTER + INTRA:          -6.880
REMARK INTER:                  -5.795
REMARK INTRA:                  -1.085
REMARK UNBOUND:                -0.579
REMARK SMILES O=C(O)c1cc(-c2ccc(F)cc2F)ccc1O
REMARK SMILES IDX 6 1 5 2 15 3 4 4 17 5 16 6 7 7 13 8 12 9 8 10 10 11 9 12
REMARK SMILES IDX 14 13 11 14 2 15 1 16 3 17 18 19
REMARK H PARENT 3 18 18 20
ROOT
ATOM      1  C   UNL     1       2.374   7.900   5.119  1.00  0.00    -0.014 A 
ATOM      2  C   UNL     1       3.501   8.663   5.423  1.00  0.00     0.028 A 
ATOM      3  C   UNL     1       1.126   8.268   5.622  1.00  0.00     0.013 A 
ATOM      4  C   UNL     1       3.381   9.795   6.230  1.00  0.00     0.102 A 
ATOM      5  C   UNL     1       2.133  10.163   6.733  1.00  0.00     0.130 A 
ATOM      6  C   UNL     1       1.005   9.399   6.429  1.00  0.00     0.048 A 
ENDROOT
BRANCH   1   7
ATOM      7  C   UNL     1       2.498   6.726   4.282  1.00  0.00     0.018 A 
ATOM      8  C   UNL     1       2.726   5.476   4.859  1.00  0.00     0.133 A 
ATOM      9  C   UNL     1       2.845   4.346   4.049  1.00  0.00     0.079 A 
ATOM     10  C   UNL     1       2.389   6.845   2.897  1.00  0.00     0.015 A 
ATOM     11  C   UNL     1       2.737   4.466   2.664  1.00  0.00     0.126 A 
ATOM     12  C   UNL     1       2.509   5.716   2.089  1.00  0.00     0.040 A 
ATOM     13  F   UNL     1       2.835   5.344   6.189  1.00  0.00    -0.206 F 
ATOM     14  F   UNL     1       2.851   3.382   1.886  1.00  0.00    -0.207 F 
ENDBRANCH   1   7
BRANCH   4  15
ATOM     15  C   UNL     1       4.569  10.579   6.535  1.00  0.00     0.339 C 
ATOM     16  O   UNL     1       4.577  11.665   7.119  1.00  0.00    -0.246 OA
BRANCH  15  17
ATOM     17  O   UNL     1       5.711   9.978   6.103  1.00  0.00    -0.478 OA
ATOM     18  H   UNL     1       5.875  10.148   5.151  1.00  0.00     0.297 HD
ENDBRANCH  15  17
ENDBRANCH   4  15
BRANCH   5  19
ATOM     19  O   UNL     1       1.993  11.265   7.523  1.00  0.00    -0.507 OA
ATOM     20  H   UNL     1       2.740  11.305   8.145  1.00  0.00     0.293 HD
ENDBRANCH   5  19
TORSDOF 4
ENDMDL
MODEL 8
REMARK VINA RESULT:    -5.349      4.639      6.925
REMARK INTER + INTRA:          -6.866
REMARK INTER:                  -5.780
REMARK INTRA:                  -1.086
REMARK UNBOUND:                -0.579
REMARK SMILES O=C(O)c1cc(-c2ccc(F)cc2F)ccc1O
REMARK SMILES IDX 6 1 5 2 15 3 4 4 17 5 16 6 7 7 13 8 12 9 8 10 10 11 9 12
REMARK SMILES IDX 14 13 11 14 2 15 1 16 3 17 18 19
REMARK H PARENT 3 18 18 20
ROOT
ATOM      1  C   UNL     1       1.957   8.196   4.846  1.00  0.00    -0.014 A 
ATOM      2  C   UNL     1       1.013   8.853   5.635  1.00  0.00     0.028 A 
ATOM      3  C   UNL     1       3.299   8.569   4.909  1.00  0.00     0.013 A 
ATOM      4  C   UNL     1       1.411   9.883   6.487  1.00  0.00     0.102 A 
ATOM      5  C   UNL     1       2.754  10.256   6.550  1.00  0.00     0.130 A 
ATOM      6  C   UNL     1       3.699   9.598   5.761  1.00  0.00     0.048 A 
ENDROOT
BRANCH   1   7
ATOM      7  C   UNL     1       1.544   7.128   3.961  1.00  0.00     0.018 A 
ATOM      8  C   UNL     1       1.176   7.412   2.645  1.00  0.00     0.133 A 
ATOM      9  C   UNL     1       0.779   6.379   1.795  1.00  0.00     0.079 A 
ATOM     10  C   UNL     1       1.515   5.814   4.426  1.00  0.00     0.015 A 
ATOM     11  C   UNL     1       0.749   5.065   2.260  1.00  0.00     0.126 A 
ATOM     12  C   UNL     1       1.118   4.782   3.576  1.00  0.00     0.040 A 
ATOM     13  F   UNL     1       1.196   8.670   2.184  1.00  0.00    -0.206 F 
ATOM     14  F   UNL     1       0.368   4.073   1.445  1.00  0.00    -0.207 F 
ENDBRANCH   1   7
BRANCH   4  15
ATOM     15  C   UNL     1       0.411  10.557   7.303  1.00  0.00     0.339 C 
ATOM     16  O   UNL     1       0.649  11.383   8.187  1.00  0.00    -0.246 OA
BRANCH  15  17
ATOM     17  O   UNL     1      -0.857  10.177   6.986  1.00  0.00    -0.478 OA
ATOM     18  H   UNL     1      -1.524  10.805   7.336  1.00  0.00     0.297 HD
ENDBRANCH  15  17
ENDBRANCH   4  15
BRANCH   5  19
ATOM     19  O   UNL     1       3.164  11.260   7.376  1.00  0.00    -0.507 OA
ATOM     20  H   UNL     1       3.915  10.945   7.909  1.00  0.00     0.293 HD
ENDBRANCH   5  19
TORSDOF 4
ENDMDL
MODEL 9
REMARK VINA RESULT:    -5.333      4.239      6.511
REMARK INTER + INTRA:          -6.847
REMARK INTER:                  -5.776
REMARK INTRA:                  -1.071
REMARK UNBOUND:                -0.579
REMARK SMILES O=C(O)c1cc(-c2ccc(F)cc2F)ccc1O
REMARK SMILES IDX 6 1 5 2 15 3 4 4 17 5 16 6 7 7 13 8 12 9 8 10 10 11 9 12
REMARK SMILES IDX 14 13 11 14 2 15 1 16 3 17 18 19
REMARK H PARENT 3 18 18 20
ROOT
ATOM      1  C   UNL     1       2.092   8.277   5.035  1.00  0.00    -0.014 A 
ATOM      2  C   UNL     1       3.378   8.788   5.208  1.00  0.00     0.028 A 
ATOM      3  C   UNL     1       1.020   8.836   5.731  1.00  0.00     0.013 A 
ATOM      4  C   UNL     1       3.592   9.858   6.077  1.00  0.00     0.102 A 
ATOM      5  C   UNL     1       2.520  10.417   6.773  1.00  0.00     0.130 A 
ATOM      6  C   UNL     1       1.233   9.905   6.599  1.00  0.00     0.048 A 
ENDROOT
BRANCH   1   7
ATOM      7  C   UNL     1       1.869   7.166   4.134  1.00  0.00     0.018 A 
ATOM      8  C   UNL     1       1.458   7.400   2.822  1.00  0.00     0.133 A 
ATOM      9  C   UNL     1       1.244   6.327   1.957  1.00  0.00     0.079 A 
ATOM     10  C   UNL     1       2.067   5.860   4.581  1.00  0.00     0.015 A 
ATOM     11  C   UNL     1       1.441   5.021   2.404  1.00  0.00     0.126 A 
ATOM     12  C   UNL     1       1.853   4.788   3.716  1.00  0.00     0.040 A 
ATOM     13  F   UNL     1       1.260   8.650   2.377  1.00  0.00    -0.206 F 
ATOM     14  F   UNL     1       1.236   3.990   1.575  1.00  0.00    -0.207 F 
ENDBRANCH   1   7
BRANCH   4  15
ATOM     15  C   UNL     1       4.943  10.378   6.244  1.00  0.00     0.339 C 
ATOM     16  O   UNL     1       5.321  11.098   7.170  1.00  0.00    -0.246 OA
BRANCH  15  17
ATOM     17  O   UNL     1       5.778   9.978   5.247  1.00  0.00    -0.478 OA
ATOM     18  H   UNL     1       6.641   9.670   5.596  1.00  0.00     0.297 HD
ENDBRANCH  15  17
ENDBRANCH   4  15
BRANCH   5  19
ATOM     19  O   UNL     1       2.708  11.463   7.626  1.00  0.00    -0.507 OA
ATOM     20  H   UNL     1       2.728  11.128   8.540  1.00  0.00     0.293 HD
ENDBRANCH   5  19
TORSDOF 4
ENDMDL
