MODEL 1
REMARK VINA RESULT:    -5.586      0.000      0.000
REMARK INTER + INTRA:          -7.698
REMARK INTER:                  -6.892
REMARK INTRA:                  -0.806
REMARK UNBOUND:                -0.806
REMARK SMILES Cc1ccc(C(=O)c2cc(O)c(O)c([N+](=O)[O-])c2)cc1
REMARK SMILES IDX 8 1 18 2 9 3 14 4 10 5 12 6 6 7 7 8 5 9 4 10 19 11 3 12
REMARK SMILES IDX 20 13 2 14 1 15 15 16 17 17 16 18 11 19 13 21
REMARK H PARENT 11 20 13 22
ROOT
ATOM      1  C   UNL     1       5.513  -3.471   2.622  1.00  0.00     0.033 A 
ATOM      2  C   UNL     1       5.642  -2.104   2.541  1.00  0.00     0.102 A 
ATOM      3  C   UNL     1       4.299  -4.112   2.546  1.00  0.00     0.063 A 
ATOM      4  C   UNL     1       4.491  -1.334   2.373  1.00  0.00     0.315 A 
ATOM      5  C   UNL     1       3.147  -3.342   2.378  1.00  0.00     0.165 A 
ATOM      6  C   UNL     1       3.244  -1.953   2.291  1.00  0.00     0.237 A 
ENDROOT
BRANCH   1   7
ATOM      7  C   UNL     1       6.745  -4.296   2.803  1.00  0.00     0.193 C 
ATOM      8  O   UNL     1       6.794  -5.384   2.208  1.00  0.00    -0.289 OA
BRANCH   7   9
ATOM      9  C   UNL     1       7.857  -3.865   3.635  1.00  0.00     0.023 A 
ATOM     10  C   UNL     1       7.915  -4.248   4.975  1.00  0.00     0.012 A 
ATOM     11  C   UNL     1       8.866  -3.069   3.094  1.00  0.00     0.012 A 
ATOM     12  C   UNL     1       8.981  -3.835   5.773  1.00  0.00     0.004 A 
ATOM     13  C   UNL     1       9.934  -2.656   3.891  1.00  0.00     0.004 A 
ATOM     14  C   UNL     1       9.991  -3.039   5.232  1.00  0.00    -0.051 A 
ATOM     15  C   UNL     1      11.130  -2.596   6.085  1.00  0.00     0.044 C 
ENDBRANCH   7   9
ENDBRANCH   1   7
BRANCH   4  16
ATOM     16  N   UNL     1       4.609   0.080   2.287  1.00  0.00     0.066 N 
ATOM     17  O   UNL     1       3.667   0.794   2.709  1.00  0.00    -0.258 OA
ATOM     18  O   UNL     1       5.650   0.572   1.793  1.00  0.00    -0.258 OA
ENDBRANCH   4  16
BRANCH   5  19
ATOM     19  O   UNL     1       1.936  -3.960   2.300  1.00  0.00    -0.504 OA
ATOM     20  H   UNL     1       1.247  -3.370   2.648  1.00  0.00     0.293 HD
ENDBRANCH   5  19
BRANCH   6  21
ATOM     21  O   UNL     1       2.111  -1.210   2.127  1.00  0.00    -0.500 OA
ATOM     22  H   UNL     1       1.635  -1.512   1.337  1.00  0.00     0.294 HD
ENDBRANCH   6  21
TORSDOF 5
ENDMDL
MODEL 2
REMARK VINA RESULT:    -5.583      2.011      3.539
REMARK INTER + INTRA:          -7.694
REMARK INTER:                  -6.905
REMARK INTRA:                  -0.789
REMARK UNBOUND:                -0.806
REMARK SMILES Cc1ccc(C(=O)c2cc(O)c(O)c([N+](=O)[O-])c2)cc1
REMARK SMILES IDX 8 1 18 2 9 3 14 4 10 5 12 6 6 7 7 8 5 9 4 10 19 11 3 12
REMARK SMILES IDX 20 13 2 14 1 15 15 16 17 17 16 18 11 19 13 21
REMARK H PARENT 11 20 13 22
ROOT
ATOM      1  C   UNL     1       5.720  -2.050   3.758  1.00  0.00     0.033 A 
ATOM      2  C   UNL     1       4.884  -3.132   3.611  1.00  0.00     0.102 A 
ATOM      3  C   UNL     1       5.381  -0.783   3.345  1.00  0.00     0.063 A 
ATOM      4  C   UNL     1       3.636  -2.935   3.019  1.00  0.00     0.315 A 
ATOM      5  C   UNL     1       4.134  -0.586   2.752  1.00  0.00     0.165 A 
ATOM      6  C   UNL     1       3.261  -1.662   2.589  1.00  0.00     0.237 A 
ENDROOT
BRANCH   1   7
ATOM      7  C   UNL     1       7.056  -2.260   4.392  1.00  0.00     0.193 C 
ATOM      8  O   UNL     1       7.492  -1.352   5.116  1.00  0.00    -0.289 OA
BRANCH   7   9
ATOM      9  C   UNL     1       7.835  -3.471   4.187  1.00  0.00     0.023 A 
ATOM     10  C   UNL     1       8.800  -3.518   3.182  1.00  0.00     0.012 A 
ATOM     11  C   UNL     1       7.616  -4.586   4.996  1.00  0.00     0.012 A 
ATOM     12  C   UNL     1       9.547  -4.679   2.985  1.00  0.00     0.004 A 
ATOM     13  C   UNL     1       8.363  -5.749   4.800  1.00  0.00     0.004 A 
ATOM     14  C   UNL     1       9.329  -5.795   3.794  1.00  0.00    -0.051 A 
ATOM     15  C   UNL     1      10.126  -7.037   3.583  1.00  0.00     0.044 C 
ENDBRANCH   7   9
ENDBRANCH   1   7
BRANCH   4  16
ATOM     16  N   UNL     1       2.760  -4.044   2.861  1.00  0.00     0.066 N 
ATOM     17  O   UNL     1       2.807  -4.977   3.698  1.00  0.00    -0.258 OA
ATOM     18  O   UNL     1       1.967  -4.056   1.891  1.00  0.00    -0.258 OA
ENDBRANCH   4  16
BRANCH   5  19
ATOM     19  O   UNL     1       3.781   0.663   2.337  1.00  0.00    -0.504 OA
ATOM     20  H   UNL     1       4.344   1.323   2.775  1.00  0.00     0.293 HD
ENDBRANCH   5  19
BRANCH   6  21
ATOM     21  O   UNL     1       2.043  -1.457   2.008  1.00  0.00    -0.500 OA
ATOM     22  H   UNL     1       1.932  -0.514   1.810  1.00  0.00     0.294 HD
ENDBRANCH   6  21
TORSDOF 5
ENDMDL
MODEL 3
REMARK VINA RESULT:    -4.929      1.671      2.978
REMARK INTER + INTRA:          -6.887
REMARK INTER:                  -6.198
REMARK INTRA:                  -0.689
REMARK UNBOUND:                -0.806
REMARK SMILES Cc1ccc(C(=O)c2cc(O)c(O)c([N+](=O)[O-])c2)cc1
REMARK SMILES IDX 8 1 18 2 9 3 14 4 10 5 12 6 6 7 7 8 5 9 4 10 19 11 3 12
REMARK SMILES IDX 20 13 2 14 1 15 15 16 17 17 16 18 11 19 13 21
REMARK H PARENT 11 20 13 22
ROOT
ATOM      1  C   UNL     1       5.656  -1.956   1.932  1.00  0.00     0.033 A 
ATOM      2  C   UNL     1       4.797  -3.031   1.936  1.00  0.00     0.102 A 
ATOM      3  C   UNL     1       5.241  -0.668   2.172  1.00  0.00     0.063 A 
ATOM      4  C   UNL     1       3.446  -2.803   2.196  1.00  0.00     0.315 A 
ATOM      5  C   UNL     1       3.889  -0.440   2.431  1.00  0.00     0.165 A 
ATOM      6  C   UNL     1       2.991  -1.508   2.444  1.00  0.00     0.237 A 
ENDROOT
BRANCH   1   7
ATOM      7  C   UNL     1       7.103  -2.200   1.653  1.00  0.00     0.193 C 
ATOM      8  O   UNL     1       7.502  -1.997   0.496  1.00  0.00    -0.289 OA
BRANCH   7   9
ATOM      9  C   UNL     1       8.029  -2.656   2.677  1.00  0.00     0.023 A 
ATOM     10  C   UNL     1       7.562  -3.414   3.752  1.00  0.00     0.012 A 
ATOM     11  C   UNL     1       9.383  -2.337   2.586  1.00  0.00     0.012 A 
ATOM     12  C   UNL     1       8.450  -3.851   4.734  1.00  0.00     0.004 A 
ATOM     13  C   UNL     1      10.272  -2.774   3.569  1.00  0.00     0.004 A 
ATOM     14  C   UNL     1       9.805  -3.532   4.643  1.00  0.00    -0.051 A 
ATOM     15  C   UNL     1      10.754  -3.999   5.694  1.00  0.00     0.044 C 
ENDBRANCH   7   9
ENDBRANCH   1   7
BRANCH   4  16
ATOM     16  N   UNL     1       2.545  -3.904   2.205  1.00  0.00     0.066 N 
ATOM     17  O   UNL     1       2.838  -4.921   2.878  1.00  0.00    -0.258 OA
ATOM     18  O   UNL     1       1.486  -3.825   1.540  1.00  0.00    -0.258 OA
ENDBRANCH   4  16
BRANCH   5  19
ATOM     19  O   UNL     1       3.460   0.831   2.672  1.00  0.00    -0.504 OA
ATOM     20  H   UNL     1       3.920   1.188   3.450  1.00  0.00     0.293 HD
ENDBRANCH   5  19
BRANCH   6  21
ATOM     21  O   UNL     1       1.672  -1.272   2.700  1.00  0.00    -0.500 OA
ATOM     22  H   UNL     1       1.427  -1.675   3.548  1.00  0.00     0.294 HD
ENDBRANCH   6  21
TORSDOF 5
ENDMDL
MODEL 4
REMARK VINA RESULT:    -4.888      1.794      2.064
REMARK INTER + INTRA:          -6.838
REMARK INTER:                  -6.238
REMARK INTRA:                  -0.599
REMARK UNBOUND:                -0.806
REMARK SMILES Cc1ccc(C(=O)c2cc(O)c(O)c([N+](=O)[O-])c2)cc1
REMARK SMILES IDX 8 1 18 2 9 3 14 4 10 5 12 6 6 7 7 8 5 9 4 10 19 11 3 12
REMARK SMILES IDX 20 13 2 14 1 15 15 16 17 17 16 18 11 19 13 21
REMARK H PARENT 11 20 13 22
ROOT
ATOM      1  C   UNL     1       4.478  -3.119   4.065  1.00  0.00     0.033 A 
ATOM      2  C   UNL     1       4.714  -1.791   3.796  1.00  0.00     0.102 A 
ATOM      3  C   UNL     1       3.503  -3.848   3.427  1.00  0.00     0.063 A 
ATOM      4  C   UNL     1       3.930  -1.157   2.832  1.00  0.00     0.315 A 
ATOM      5  C   UNL     1       2.719  -3.214   2.464  1.00  0.00     0.165 A 
ATOM      6  C   UNL     1       2.933  -1.868   2.165  1.00  0.00     0.237 A 
ENDROOT
BRANCH   1   7
ATOM      7  C   UNL     1       5.318  -3.799   5.098  1.00  0.00     0.193 C 
ATOM      8  O   UNL     1       4.821  -3.951   6.224  1.00  0.00    -0.289 OA
BRANCH   7   9
ATOM      9  C   UNL     1       6.664  -4.272   4.820  1.00  0.00     0.023 A 
ATOM     10  C   UNL     1       7.212  -5.303   5.583  1.00  0.00     0.012 A 
ATOM     11  C   UNL     1       7.408  -3.695   3.790  1.00  0.00     0.012 A 
ATOM     12  C   UNL     1       8.504  -5.757   5.316  1.00  0.00     0.004 A 
ATOM     13  C   UNL     1       8.700  -4.149   3.523  1.00  0.00     0.004 A 
ATOM     14  C   UNL     1       9.248  -5.181   4.286  1.00  0.00    -0.051 A 
ATOM     15  C   UNL     1      10.629  -5.666   4.002  1.00  0.00     0.044 C 
ENDBRANCH   7   9
ENDBRANCH   1   7
BRANCH   4  16
ATOM     16  N   UNL     1       4.163   0.216   2.542  1.00  0.00     0.066 N 
ATOM     17  O   UNL     1       5.289   0.562   2.112  1.00  0.00    -0.258 OA
ATOM     18  O   UNL     1       3.235   1.039   2.723  1.00  0.00    -0.258 OA
ENDBRANCH   4  16
BRANCH   5  19
ATOM     19  O   UNL     1       1.748  -3.922   1.820  1.00  0.00    -0.504 OA
ATOM     20  H   UNL     1       1.042  -3.319   1.534  1.00  0.00     0.293 HD
ENDBRANCH   5  19
BRANCH   6  21
ATOM     21  O   UNL     1       2.159  -1.259   1.220  1.00  0.00    -0.500 OA
ATOM     22  H   UNL     1       1.562  -1.909   0.819  1.00  0.00     0.294 HD
ENDBRANCH   6  21
TORSDOF 5
ENDMDL
MODEL 5
REMARK VINA RESULT:    -4.857      3.610      7.143
REMARK INTER + INTRA:          -6.799
REMARK INTER:                  -5.865
REMARK INTRA:                  -0.934
REMARK UNBOUND:                -0.806
REMARK SMILES Cc1ccc(C(=O)c2cc(O)c(O)c([N+](=O)[O-])c2)cc1
REMARK SMILES IDX 8 1 18 2 9 3 14 4 10 5 12 6 6 7 7 8 5 9 4 10 19 11 3 12
REMARK SMILES IDX 20 13 2 14 1 15 15 16 17 17 16 18 11 19 13 21
REMARK H PARENT 11 20 13 22
ROOT
ATOM      1  C   UNL     1       8.984  -3.374   3.670  1.00  0.00     0.033 A 
ATOM      2  C   UNL     1       9.287  -4.708   3.528  1.00  0.00     0.102 A 
ATOM      3  C   UNL     1       9.672  -2.538   4.517  1.00  0.00     0.063 A 
ATOM      4  C   UNL     1      10.339  -5.236   4.276  1.00  0.00     0.315 A 
ATOM      5  C   UNL     1      10.724  -3.066   5.266  1.00  0.00     0.165 A 
ATOM      6  C   UNL     1      11.058  -4.416   5.145  1.00  0.00     0.237 A 
ENDROOT
BRANCH   1   7
ATOM      7  C   UNL     1       7.857  -2.808   2.869  1.00  0.00     0.193 C 
ATOM      8  O   UNL     1       8.129  -1.907   2.061  1.00  0.00    -0.289 OA
BRANCH   7   9
ATOM      9  C   UNL     1       6.488  -3.276   3.011  1.00  0.00     0.023 A 
ATOM     10  C   UNL     1       5.975  -3.559   4.277  1.00  0.00     0.012 A 
ATOM     11  C   UNL     1       5.686  -3.441   1.882  1.00  0.00     0.012 A 
ATOM     12  C   UNL     1       4.662  -4.008   4.413  1.00  0.00     0.004 A 
ATOM     13  C   UNL     1       4.372  -3.890   2.017  1.00  0.00     0.004 A 
ATOM     14  C   UNL     1       3.859  -4.173   3.283  1.00  0.00    -0.051 A 
ATOM     15  C   UNL     1       2.456  -4.654   3.429  1.00  0.00     0.044 C 
ENDBRANCH   7   9
ENDBRANCH   1   7
BRANCH   4  16
ATOM     16  N   UNL     1      10.665  -6.614   4.140  1.00  0.00     0.066 N 
ATOM     17  O   UNL     1      11.860  -6.970   4.273  1.00  0.00    -0.258 OA
ATOM     18  O   UNL     1       9.748  -7.431   3.891  1.00  0.00    -0.258 OA
ENDBRANCH   4  16
BRANCH   5  19
ATOM     19  O   UNL     1      11.418  -2.253   6.111  1.00  0.00    -0.504 OA
ATOM     20  H   UNL     1      10.842  -1.532   6.415  1.00  0.00     0.293 HD
ENDBRANCH   5  19
BRANCH   6  21
ATOM     21  O   UNL     1      12.090  -4.921   5.882  1.00  0.00    -0.500 OA
ATOM     22  H   UNL     1      11.851  -5.799   6.218  1.00  0.00     0.294 HD
ENDBRANCH   6  21
TORSDOF 5
ENDMDL
MODEL 6
REMARK VINA RESULT:    -4.836      3.714      6.604
REMARK INTER + INTRA:          -6.773
REMARK INTER:                  -5.865
REMARK INTRA:                  -0.908
REMARK UNBOUND:                -0.806
REMARK SMILES Cc1ccc(C(=O)c2cc(O)c(O)c([N+](=O)[O-])c2)cc1
REMARK SMILES IDX 8 1 18 2 9 3 14 4 10 5 12 6 6 7 7 8 5 9 4 10 19 11 3 12
REMARK SMILES IDX 20 13 2 14 1 15 15 16 17 17 16 18 11 19 13 21
REMARK H PARENT 11 20 13 22
ROOT
ATOM      1  C   UNL     1       8.160  -4.573   4.641  1.00  0.00     0.033 A 
ATOM      2  C   UNL     1       9.136  -3.764   5.177  1.00  0.00     0.102 A 
ATOM      3  C   UNL     1       8.428  -5.808   4.102  1.00  0.00     0.063 A 
ATOM      4  C   UNL     1      10.454  -4.218   5.173  1.00  0.00     0.315 A 
ATOM      5  C   UNL     1       9.747  -6.263   4.098  1.00  0.00     0.165 A 
ATOM      6  C   UNL     1      10.761  -5.467   4.634  1.00  0.00     0.237 A 
ENDROOT
BRANCH   1   7
ATOM      7  C   UNL     1       6.747  -4.086   4.645  1.00  0.00     0.193 C 
ATOM      8  O   UNL     1       5.922  -4.740   5.300  1.00  0.00    -0.289 OA
BRANCH   7   9
ATOM      9  C   UNL     1       6.330  -2.898   3.918  1.00  0.00     0.023 A 
ATOM     10  C   UNL     1       6.890  -2.609   2.673  1.00  0.00     0.012 A 
ATOM     11  C   UNL     1       5.371  -2.046   4.465  1.00  0.00     0.012 A 
ATOM     12  C   UNL     1       6.489  -1.469   1.976  1.00  0.00     0.004 A 
ATOM     13  C   UNL     1       4.969  -0.906   3.769  1.00  0.00     0.004 A 
ATOM     14  C   UNL     1       5.529  -0.617   2.524  1.00  0.00    -0.051 A 
ATOM     15  C   UNL     1       5.102   0.602   1.779  1.00  0.00     0.044 C 
ENDBRANCH   7   9
ENDBRANCH   1   7
BRANCH   4  16
ATOM     16  N   UNL     1      11.474  -3.394   5.724  1.00  0.00     0.066 N 
ATOM     17  O   UNL     1      11.350  -2.147   5.652  1.00  0.00    -0.258 OA
ATOM     18  O   UNL     1      12.465  -3.936   6.265  1.00  0.00    -0.258 OA
ENDBRANCH   4  16
BRANCH   5  19
ATOM     19  O   UNL     1      10.031  -7.485   3.568  1.00  0.00    -0.504 OA
ATOM     20  H   UNL     1      10.973  -7.526   3.331  1.00  0.00     0.293 HD
ENDBRANCH   5  19
BRANCH   6  21
ATOM     21  O   UNL     1      12.047  -5.923   4.625  1.00  0.00    -0.500 OA
ATOM     22  H   UNL     1      12.481  -5.657   3.799  1.00  0.00     0.294 HD
ENDBRANCH   6  21
TORSDOF 5
ENDMDL
MODEL 7
REMARK VINA RESULT:    -4.810      3.957      7.100
REMARK INTER + INTRA:          -6.741
REMARK INTER:                  -5.956
REMARK INTRA:                  -0.785
REMARK UNBOUND:                -0.806
REMARK SMILES Cc1ccc(C(=O)c2cc(O)c(O)c([N+](=O)[O-])c2)cc1
REMARK SMILES IDX 8 1 18 2 9 3 14 4 10 5 12 6 6 7 7 8 5 9 4 10 19 11 3 12
REMARK SMILES IDX 20 13 2 14 1 15 15 16 17 17 16 18 11 19 13 21
REMARK H PARENT 11 20 13 22
ROOT
ATOM      1  C   UNL     1       8.960  -4.220   4.291  1.00  0.00     0.033 A 
ATOM      2  C   UNL     1      10.128  -3.877   4.932  1.00  0.00     0.102 A 
ATOM      3  C   UNL     1       8.752  -5.456   3.729  1.00  0.00     0.063 A 
ATOM      4  C   UNL     1      11.146  -4.828   5.016  1.00  0.00     0.315 A 
ATOM      5  C   UNL     1       9.771  -6.407   3.811  1.00  0.00     0.165 A 
ATOM      6  C   UNL     1      10.968  -6.092   4.456  1.00  0.00     0.237 A 
ENDROOT
BRANCH   1   7
ATOM      7  C   UNL     1       7.870  -3.202   4.202  1.00  0.00     0.193 C 
ATOM      8  O   UNL     1       8.184  -2.015   4.375  1.00  0.00    -0.289 OA
BRANCH   7   9
ATOM      9  C   UNL     1       6.489  -3.562   3.923  1.00  0.00     0.023 A 
ATOM     10  C   UNL     1       5.627  -3.886   4.972  1.00  0.00     0.012 A 
ATOM     11  C   UNL     1       6.025  -3.582   2.608  1.00  0.00     0.012 A 
ATOM     12  C   UNL     1       4.303  -4.230   4.704  1.00  0.00     0.004 A 
ATOM     13  C   UNL     1       4.699  -3.927   2.340  1.00  0.00     0.004 A 
ATOM     14  C   UNL     1       3.838  -4.251   3.388  1.00  0.00    -0.051 A 
ATOM     15  C   UNL     1       2.422  -4.621   3.103  1.00  0.00     0.044 C 
ENDBRANCH   7   9
ENDBRANCH   1   7
BRANCH   4  16
ATOM     16  N   UNL     1      12.359  -4.489   5.676  1.00  0.00     0.066 N 
ATOM     17  O   UNL     1      12.337  -3.611   6.572  1.00  0.00    -0.258 OA
ATOM     18  O   UNL     1      13.414  -5.077   5.344  1.00  0.00    -0.258 OA
ENDBRANCH   4  16
BRANCH   5  19
ATOM     19  O   UNL     1       9.582  -7.638   3.260  1.00  0.00    -0.504 OA
ATOM     20  H   UNL     1      10.368  -7.889   2.746  1.00  0.00     0.293 HD
ENDBRANCH   5  19
BRANCH   6  21
ATOM     21  O   UNL     1      11.956  -7.030   4.531  1.00  0.00    -0.500 OA
ATOM     22  H   UNL     1      12.437  -7.066   3.689  1.00  0.00     0.294 HD
ENDBRANCH   6  21
TORSDOF 5
ENDMDL
MODEL 8
REMARK VINA RESULT:    -4.749      1.284      2.918
REMARK INTER + INTRA:          -6.665
REMARK INTER:                  -5.975
REMARK INTRA:                  -0.691
REMARK UNBOUND:                -0.806
REMARK SMILES Cc1ccc(C(=O)c2cc(O)c(O)c([N+](=O)[O-])c2)cc1
REMARK SMILES IDX 8 1 18 2 9 3 14 4 10 5 12 6 6 7 7 8 5 9 4 10 19 11 3 12
REMARK SMILES IDX 20 13 2 14 1 15 15 16 17 17 16 18 11 19 13 21
REMARK H PARENT 11 20 13 22
ROOT
ATOM      1  C   UNL     1       6.075  -3.511   2.830  1.00  0.00     0.033 A 
ATOM      2  C   UNL     1       4.848  -4.125   2.932  1.00  0.00     0.102 A 
ATOM      3  C   UNL     1       6.223  -2.196   2.459  1.00  0.00     0.063 A 
ATOM      4  C   UNL     1       3.704  -3.379   2.648  1.00  0.00     0.315 A 
ATOM      5  C   UNL     1       5.079  -1.450   2.174  1.00  0.00     0.165 A 
ATOM      6  C   UNL     1       3.818  -2.042   2.269  1.00  0.00     0.237 A 
ENDROOT
BRANCH   1   7
ATOM      7  C   UNL     1       7.301  -4.309   3.134  1.00  0.00     0.193 C 
ATOM      8  O   UNL     1       7.376  -5.446   2.642  1.00  0.00    -0.289 OA
BRANCH   7   9
ATOM      9  C   UNL     1       8.377  -3.799   3.968  1.00  0.00     0.023 A 
ATOM     10  C   UNL     1       9.362  -2.981   3.414  1.00  0.00     0.012 A 
ATOM     11  C   UNL     1       8.423  -4.125   5.323  1.00  0.00     0.012 A 
ATOM     12  C   UNL     1      10.393  -2.492   4.214  1.00  0.00     0.004 A 
ATOM     13  C   UNL     1       9.455  -3.635   6.125  1.00  0.00     0.004 A 
ATOM     14  C   UNL     1      10.440  -2.818   5.570  1.00  0.00    -0.051 A 
ATOM     15  C   UNL     1      11.544  -2.296   6.425  1.00  0.00     0.044 C 
ENDBRANCH   7   9
ENDBRANCH   1   7
BRANCH   4  16
ATOM     16  N   UNL     1       2.429  -4.000   2.750  1.00  0.00     0.066 N 
ATOM     17  O   UNL     1       1.685  -4.026   1.740  1.00  0.00    -0.258 OA
ATOM     18  O   UNL     1       2.085  -4.503   3.845  1.00  0.00    -0.258 OA
ENDBRANCH   4  16
BRANCH   5  19
ATOM     19  O   UNL     1       5.206  -0.145   1.805  1.00  0.00    -0.504 OA
ATOM     20  H   UNL     1       4.494   0.379   2.210  1.00  0.00     0.293 HD
ENDBRANCH   5  19
BRANCH   6  21
ATOM     21  O   UNL     1       2.706  -1.303   1.988  1.00  0.00    -0.500 OA
ATOM     22  H   UNL     1       2.344  -0.935   2.809  1.00  0.00     0.294 HD
ENDBRANCH   6  21
TORSDOF 5
ENDMDL
MODEL 9
REMARK VINA RESULT:    -4.735      1.978      2.545
REMARK INTER + INTRA:          -6.648
REMARK INTER:                  -5.948
REMARK INTRA:                  -0.700
REMARK UNBOUND:                -0.806
REMARK SMILES Cc1ccc(C(=O)c2cc(O)c(O)c([N+](=O)[O-])c2)cc1
REMARK SMILES IDX 8 1 18 2 9 3 14 4 10 5 12 6 6 7 7 8 5 9 4 10 19 11 3 12
REMARK SMILES IDX 20 13 2 14 1 15 15 16 17 17 16 18 11 19 13 21
REMARK H PARENT 11 20 13 22
ROOT
ATOM      1  C   UNL     1       6.181  -2.439   3.884  1.00  0.00     0.033 A 
ATOM      2  C   UNL     1       5.911  -1.221   3.303  1.00  0.00     0.102 A 
ATOM      3  C   UNL     1       5.239  -3.432   4.006  1.00  0.00     0.063 A 
ATOM      4  C   UNL     1       4.626  -0.986   2.814  1.00  0.00     0.315 A 
ATOM      5  C   UNL     1       3.953  -3.197   3.518  1.00  0.00     0.165 A 
ATOM      6  C   UNL     1       3.647  -1.973   2.921  1.00  0.00     0.237 A 
ENDROOT
BRANCH   1   7
ATOM      7  C   UNL     1       7.557  -2.691   4.408  1.00  0.00     0.193 C 
ATOM      8  O   UNL     1       8.082  -1.794   5.084  1.00  0.00    -0.289 OA
BRANCH   7   9
ATOM      9  C   UNL     1       8.274  -3.929   4.150  1.00  0.00     0.023 A 
ATOM     10  C   UNL     1       9.177  -4.005   3.089  1.00  0.00     0.012 A 
ATOM     11  C   UNL     1       8.060  -5.042   4.964  1.00  0.00     0.012 A 
ATOM     12  C   UNL     1       9.865  -5.193   2.843  1.00  0.00     0.004 A 
ATOM     13  C   UNL     1       8.748  -6.231   4.717  1.00  0.00     0.004 A 
ATOM     14  C   UNL     1       9.651  -6.306   3.656  1.00  0.00    -0.051 A 
ATOM     15  C   UNL     1      10.385  -7.576   3.391  1.00  0.00     0.044 C 
ENDBRANCH   7   9
ENDBRANCH   1   7
BRANCH   4  16
ATOM     16  N   UNL     1       4.333   0.267   2.209  1.00  0.00     0.066 N 
ATOM     17  O   UNL     1       3.407   0.968   2.685  1.00  0.00    -0.258 OA
ATOM     18  O   UNL     1       5.008   0.636   1.220  1.00  0.00    -0.258 OA
ENDBRANCH   4  16
BRANCH   5  19
ATOM     19  O   UNL     1       3.007  -4.170   3.629  1.00  0.00    -0.504 OA
ATOM     20  H   UNL     1       2.130  -3.763   3.724  1.00  0.00     0.293 HD
ENDBRANCH   5  19
BRANCH   6  21
ATOM     21  O   UNL     1       2.386  -1.754   2.447  1.00  0.00    -0.500 OA
ATOM     22  H   UNL     1       2.233  -2.304   1.662  1.00  0.00     0.294 HD
ENDBRANCH   6  21
TORSDOF 5
ENDMDL
