MODEL 1
REMARK VINA RESULT:    -6.754      0.000      0.000
REMARK INTER + INTRA:          -8.518
REMARK INTER:                  -7.938
REMARK INTRA:                  -0.579
REMARK UNBOUND:                -0.579
REMARK SMILES O=C(O)c1cc(-c2ccc(F)cc2F)ccc1O
REMARK SMILES IDX 6 1 5 2 15 3 4 4 17 5 16 6 7 7 13 8 12 9 8 10 10 11 9 12
REMARK SMILES IDX 14 13 11 14 2 15 1 16 3 17 18 19
REMARK H PARENT 3 18 18 20
ROOT
ATOM      1  C   UNL     1       5.702  -2.879   3.236  1.00  0.00    -0.014 A 
ATOM      2  C   UNL     1       5.592  -1.529   2.905  1.00  0.00     0.028 A 
ATOM      3  C   UNL     1       4.589  -3.714   3.135  1.00  0.00     0.013 A 
ATOM      4  C   UNL     1       4.370  -1.013   2.474  1.00  0.00     0.102 A 
ATOM      5  C   UNL     1       3.257  -1.848   2.373  1.00  0.00     0.130 A 
ATOM      6  C   UNL     1       3.367  -3.199   2.704  1.00  0.00     0.048 A 
ENDROOT
BRANCH   1   7
ATOM      7  C   UNL     1       6.969  -3.415   3.685  1.00  0.00     0.018 A 
ATOM      8  C   UNL     1       7.023  -4.233   4.813  1.00  0.00     0.133 A 
ATOM      9  C   UNL     1       8.247  -4.747   5.243  1.00  0.00     0.079 A 
ATOM     10  C   UNL     1       8.137  -3.111   2.986  1.00  0.00     0.015 A 
ATOM     11  C   UNL     1       9.415  -4.444   4.545  1.00  0.00     0.126 A 
ATOM     12  C   UNL     1       9.360  -3.626   3.416  1.00  0.00     0.040 A 
ATOM     13  F   UNL     1       5.910  -4.532   5.498  1.00  0.00    -0.206 F 
ATOM     14  F   UNL     1      10.590  -4.937   4.956  1.00  0.00    -0.207 F 
ENDBRANCH   1   7
BRANCH   4  15
ATOM     15  C   UNL     1       4.276   0.400   2.133  1.00  0.00     0.339 C 
ATOM     16  O   UNL     1       3.467   1.198   2.613  1.00  0.00    -0.246 OA
BRANCH  15  17
ATOM     17  O   UNL     1       5.198   0.771   1.204  1.00  0.00    -0.478 OA
ATOM     18  H   UNL     1       5.043   1.683   0.880  1.00  0.00     0.297 HD
ENDBRANCH  15  17
ENDBRANCH   4  15
BRANCH   5  19
ATOM     19  O   UNL     1       2.054  -1.364   1.953  1.00  0.00    -0.507 OA
ATOM     20  H   UNL     1       1.996  -1.454   0.986  1.00  0.00     0.293 HD
ENDBRANCH   5  19
TORSDOF 4
ENDMDL
MODEL 2
REMARK VINA RESULT:    -6.748      1.200      2.676
REMARK INTER + INTRA:          -8.511
REMARK INTER:                  -7.922
REMARK INTRA:                  -0.588
REMARK UNBOUND:                -0.579
REMARK SMILES O=C(O)c1cc(-c2ccc(F)cc2F)ccc1O
REMARK SMILES IDX 6 1 5 2 15 3 4 4 17 5 16 6 7 7 13 8 12 9 8 10 10 11 9 12
REMARK SMILES IDX 14 13 11 14 2 15 1 16 3 17 18 19
REMARK H PARENT 3 18 18 20
ROOT
ATOM      1  C   UNL     1       5.757  -2.800   3.315  1.00  0.00    -0.014 A 
ATOM      2  C   UNL     1       4.655  -3.650   3.230  1.00  0.00     0.028 A 
ATOM      3  C   UNL     1       5.618  -1.445   3.015  1.00  0.00     0.013 A 
ATOM      4  C   UNL     1       3.412  -3.145   2.845  1.00  0.00     0.102 A 
ATOM      5  C   UNL     1       3.273  -1.790   2.546  1.00  0.00     0.130 A 
ATOM      6  C   UNL     1       4.377  -0.939   2.631  1.00  0.00     0.048 A 
ENDROOT
BRANCH   1   7
ATOM      7  C   UNL     1       7.046  -3.324   3.712  1.00  0.00     0.018 A 
ATOM      8  C   UNL     1       7.147  -4.179   4.810  1.00  0.00     0.133 A 
ATOM      9  C   UNL     1       8.392  -4.681   5.190  1.00  0.00     0.079 A 
ATOM     10  C   UNL     1       8.189  -2.973   2.995  1.00  0.00     0.015 A 
ATOM     11  C   UNL     1       9.535  -4.329   4.473  1.00  0.00     0.126 A 
ATOM     12  C   UNL     1       9.433  -3.475   3.375  1.00  0.00     0.040 A 
ATOM     13  F   UNL     1       6.058  -4.525   5.512  1.00  0.00    -0.206 F 
ATOM     14  F   UNL     1      10.730  -4.811   4.837  1.00  0.00    -0.207 F 
ENDBRANCH   1   7
BRANCH   4  15
ATOM     15  C   UNL     1       2.273  -4.048   2.763  1.00  0.00     0.339 C 
ATOM     16  O   UNL     1       1.547  -4.193   1.777  1.00  0.00    -0.246 OA
BRANCH  15  17
ATOM     17  O   UNL     1       2.079  -4.744   3.917  1.00  0.00    -0.478 OA
ATOM     18  H   UNL     1       1.393  -5.437   3.814  1.00  0.00     0.297 HD
ENDBRANCH  15  17
ENDBRANCH   4  15
BRANCH   5  19
ATOM     19  O   UNL     1       2.068  -1.276   2.169  1.00  0.00    -0.507 OA
ATOM     20  H   UNL     1       2.013  -0.350   2.461  1.00  0.00     0.293 HD
ENDBRANCH   5  19
TORSDOF 4
ENDMDL
MODEL 3
REMARK VINA RESULT:    -6.745      1.150      1.621
REMARK INTER + INTRA:          -8.507
REMARK INTER:                  -7.928
REMARK INTRA:                  -0.579
REMARK UNBOUND:                -0.579
REMARK SMILES O=C(O)c1cc(-c2ccc(F)cc2F)ccc1O
REMARK SMILES IDX 6 1 5 2 15 3 4 4 17 5 16 6 7 7 13 8 12 9 8 10 10 11 9 12
REMARK SMILES IDX 14 13 11 14 2 15 1 16 3 17 18 19
REMARK H PARENT 3 18 18 20
ROOT
ATOM      1  C   UNL     1       5.787  -2.868   3.175  1.00  0.00    -0.014 A 
ATOM      2  C   UNL     1       5.648  -1.516   2.864  1.00  0.00     0.028 A 
ATOM      3  C   UNL     1       4.692  -3.725   3.066  1.00  0.00     0.013 A 
ATOM      4  C   UNL     1       4.414  -1.019   2.444  1.00  0.00     0.102 A 
ATOM      5  C   UNL     1       3.319  -1.876   2.336  1.00  0.00     0.130 A 
ATOM      6  C   UNL     1       3.457  -3.229   2.647  1.00  0.00     0.048 A 
ENDROOT
BRANCH   1   7
ATOM      7  C   UNL     1       7.067  -3.384   3.611  1.00  0.00     0.018 A 
ATOM      8  C   UNL     1       8.232  -3.035   2.928  1.00  0.00     0.133 A 
ATOM      9  C   UNL     1       9.464  -3.535   3.352  1.00  0.00     0.079 A 
ATOM     10  C   UNL     1       7.133  -4.230   4.718  1.00  0.00     0.015 A 
ATOM     11  C   UNL     1       9.530  -4.381   4.458  1.00  0.00     0.126 A 
ATOM     12  C   UNL     1       8.365  -4.728   5.141  1.00  0.00     0.040 A 
ATOM     13  F   UNL     1       8.186  -2.225   1.861  1.00  0.00    -0.206 F 
ATOM     14  F   UNL     1      10.712  -4.861   4.866  1.00  0.00    -0.207 F 
ENDBRANCH   1   7
BRANCH   4  15
ATOM     15  C   UNL     1       4.290   0.396   2.124  1.00  0.00     0.339 C 
ATOM     16  O   UNL     1       3.469   1.171   2.621  1.00  0.00    -0.246 OA
BRANCH  15  17
ATOM     17  O   UNL     1       5.198   0.798   1.194  1.00  0.00    -0.478 OA
ATOM     18  H   UNL     1       6.055   0.333   1.295  1.00  0.00     0.297 HD
ENDBRANCH  15  17
ENDBRANCH   4  15
BRANCH   5  19
ATOM     19  O   UNL     1       2.104  -1.411   1.927  1.00  0.00    -0.507 OA
ATOM     20  H   UNL     1       1.465  -2.145   1.931  1.00  0.00     0.293 HD
ENDBRANCH   5  19
TORSDOF 4
ENDMDL
MODEL 4
REMARK VINA RESULT:    -6.745      1.674      3.132
REMARK INTER + INTRA:          -8.507
REMARK INTER:                  -7.928
REMARK INTRA:                  -0.579
REMARK UNBOUND:                -0.579
REMARK SMILES O=C(O)c1cc(-c2ccc(F)cc2F)ccc1O
REMARK SMILES IDX 6 1 5 2 15 3 4 4 17 5 16 6 7 7 13 8 12 9 8 10 10 11 9 12
REMARK SMILES IDX 14 13 11 14 2 15 1 16 3 17 18 19
REMARK H PARENT 3 18 18 20
ROOT
ATOM      1  C   UNL     1       5.762  -2.755   3.229  1.00  0.00    -0.014 A 
ATOM      2  C   UNL     1       4.667  -3.616   3.173  1.00  0.00     0.028 A 
ATOM      3  C   UNL     1       5.603  -1.403   2.921  1.00  0.00     0.013 A 
ATOM      4  C   UNL     1       3.412  -3.126   2.809  1.00  0.00     0.102 A 
ATOM      5  C   UNL     1       3.253  -1.775   2.501  1.00  0.00     0.130 A 
ATOM      6  C   UNL     1       4.349  -0.913   2.557  1.00  0.00     0.048 A 
ENDROOT
BRANCH   1   7
ATOM      7  C   UNL     1       7.064  -3.262   3.605  1.00  0.00     0.018 A 
ATOM      8  C   UNL     1       8.192  -2.917   2.860  1.00  0.00     0.133 A 
ATOM      9  C   UNL     1       9.445  -3.409   3.226  1.00  0.00     0.079 A 
ATOM     10  C   UNL     1       7.189  -4.096   4.716  1.00  0.00     0.015 A 
ATOM     11  C   UNL     1       9.571  -4.243   4.336  1.00  0.00     0.126 A 
ATOM     12  C   UNL     1       8.442  -4.586   5.081  1.00  0.00     0.040 A 
ATOM     13  F   UNL     1       8.088  -2.119   1.788  1.00  0.00    -0.206 F 
ATOM     14  F   UNL     1      10.773  -4.715   4.688  1.00  0.00    -0.207 F 
ENDBRANCH   1   7
BRANCH   4  15
ATOM     15  C   UNL     1       2.280  -4.042   2.757  1.00  0.00     0.339 C 
ATOM     16  O   UNL     1       1.544  -4.211   1.783  1.00  0.00    -0.246 OA
BRANCH  15  17
ATOM     17  O   UNL     1       2.107  -4.718   3.925  1.00  0.00    -0.478 OA
ATOM     18  H   UNL     1       2.108  -5.689   3.788  1.00  0.00     0.297 HD
ENDBRANCH  15  17
ENDBRANCH   4  15
BRANCH   5  19
ATOM     19  O   UNL     1       2.036  -1.277   2.144  1.00  0.00    -0.507 OA
ATOM     20  H   UNL     1       1.970  -0.354   2.444  1.00  0.00     0.293 HD
ENDBRANCH   5  19
TORSDOF 4
ENDMDL
MODEL 5
REMARK VINA RESULT:    -5.643      1.226      1.548
REMARK INTER + INTRA:          -7.212
REMARK INTER:                  -6.499
REMARK INTRA:                  -0.713
REMARK UNBOUND:                -0.579
REMARK SMILES O=C(O)c1cc(-c2ccc(F)cc2F)ccc1O
REMARK SMILES IDX 6 1 5 2 15 3 4 4 17 5 16 6 7 7 13 8 12 9 8 10 10 11 9 12
REMARK SMILES IDX 14 13 11 14 2 15 1 16 3 17 18 19
REMARK H PARENT 3 18 18 20
ROOT
ATOM      1  C   UNL     1       6.184  -3.098   3.512  1.00  0.00    -0.014 A 
ATOM      2  C   UNL     1       6.081  -1.805   3.002  1.00  0.00     0.028 A 
ATOM      3  C   UNL     1       5.035  -3.868   3.697  1.00  0.00     0.013 A 
ATOM      4  C   UNL     1       4.830  -1.279   2.677  1.00  0.00     0.102 A 
ATOM      5  C   UNL     1       3.682  -2.049   2.863  1.00  0.00     0.130 A 
ATOM      6  C   UNL     1       3.784  -3.344   3.373  1.00  0.00     0.048 A 
ENDROOT
BRANCH   1   7
ATOM      7  C   UNL     1       7.481  -3.643   3.850  1.00  0.00     0.018 A 
ATOM      8  C   UNL     1       8.383  -2.890   4.601  1.00  0.00     0.133 A 
ATOM      9  C   UNL     1       9.633  -3.419   4.925  1.00  0.00     0.079 A 
ATOM     10  C   UNL     1       7.828  -4.925   3.424  1.00  0.00     0.015 A 
ATOM     11  C   UNL     1       9.980  -4.700   4.498  1.00  0.00     0.126 A 
ATOM     12  C   UNL     1       9.077  -5.454   3.748  1.00  0.00     0.040 A 
ATOM     13  F   UNL     1       8.066  -1.655   5.016  1.00  0.00    -0.206 F 
ATOM     14  F   UNL     1      11.179  -5.209   4.808  1.00  0.00    -0.207 F 
ENDBRANCH   1   7
BRANCH   4  15
ATOM     15  C   UNL     1       4.745   0.074   2.146  1.00  0.00     0.339 C 
ATOM     16  O   UNL     1       5.521   0.568   1.324  1.00  0.00    -0.246 OA
BRANCH  15  17
ATOM     17  O   UNL     1       3.691   0.766   2.657  1.00  0.00    -0.478 OA
ATOM     18  H   UNL     1       3.483   1.561   2.123  1.00  0.00     0.297 HD
ENDBRANCH  15  17
ENDBRANCH   4  15
BRANCH   5  19
ATOM     19  O   UNL     1       2.450  -1.554   2.551  1.00  0.00    -0.507 OA
ATOM     20  H   UNL     1       2.469  -0.585   2.628  1.00  0.00     0.293 HD
ENDBRANCH   5  19
TORSDOF 4
ENDMDL
MODEL 6
REMARK VINA RESULT:    -5.353      4.306      6.563
REMARK INTER + INTRA:          -6.870
REMARK INTER:                  -5.789
REMARK INTRA:                  -1.081
REMARK UNBOUND:                -0.579
REMARK SMILES O=C(O)c1cc(-c2ccc(F)cc2F)ccc1O
REMARK SMILES IDX 6 1 5 2 15 3 4 4 17 5 16 6 7 7 13 8 12 9 8 10 10 11 9 12
REMARK SMILES IDX 14 13 11 14 2 15 1 16 3 17 18 19
REMARK H PARENT 3 18 18 20
ROOT
ATOM      1  C   UNL     1       8.195  -3.685   3.910  1.00  0.00    -0.014 A 
ATOM      2  C   UNL     1       9.140  -3.026   4.695  1.00  0.00     0.028 A 
ATOM      3  C   UNL     1       8.428  -4.994   3.488  1.00  0.00     0.013 A 
ATOM      4  C   UNL     1      10.319  -3.676   5.060  1.00  0.00     0.102 A 
ATOM      5  C   UNL     1      10.553  -4.985   4.638  1.00  0.00     0.130 A 
ATOM      6  C   UNL     1       9.607  -5.644   3.852  1.00  0.00     0.048 A 
ENDROOT
BRANCH   1   7
ATOM      7  C   UNL     1       6.971  -3.011   3.530  1.00  0.00     0.018 A 
ATOM      8  C   UNL     1       6.933  -2.225   2.378  1.00  0.00     0.133 A 
ATOM      9  C   UNL     1       5.752  -1.577   2.015  1.00  0.00     0.079 A 
ATOM     10  C   UNL     1       5.829  -3.149   4.318  1.00  0.00     0.015 A 
ATOM     11  C   UNL     1       4.611  -1.715   2.804  1.00  0.00     0.126 A 
ATOM     12  C   UNL     1       4.649  -2.502   3.955  1.00  0.00     0.040 A 
ATOM     13  F   UNL     1       8.023  -2.080   1.611  1.00  0.00    -0.206 F 
ATOM     14  F   UNL     1       3.477  -1.093   2.457  1.00  0.00    -0.207 F 
ENDBRANCH   1   7
BRANCH   4  15
ATOM     15  C   UNL     1      11.294  -2.971   5.881  1.00  0.00     0.339 C 
ATOM     16  O   UNL     1      12.219  -3.499   6.502  1.00  0.00    -0.246 OA
BRANCH  15  17
ATOM     17  O   UNL     1      11.081  -1.627   5.898  1.00  0.00    -0.478 OA
ATOM     18  H   UNL     1      10.893  -1.299   6.803  1.00  0.00     0.297 HD
ENDBRANCH  15  17
ENDBRANCH   4  15
BRANCH   5  19
ATOM     19  O   UNL     1      11.698  -5.638   4.984  1.00  0.00    -0.507 OA
ATOM     20  H   UNL     1      11.492  -6.575   5.149  1.00  0.00     0.293 HD
ENDBRANCH   5  19
TORSDOF 4
ENDMDL
MODEL 7
REMARK VINA RESULT:    -5.294      4.054      6.303
REMARK INTER + INTRA:          -6.802
REMARK INTER:                  -5.728
REMARK INTRA:                  -1.074
REMARK UNBOUND:                -0.579
REMARK SMILES O=C(O)c1cc(-c2ccc(F)cc2F)ccc1O
REMARK SMILES IDX 6 1 5 2 15 3 4 4 17 5 16 6 7 7 13 8 12 9 8 10 10 11 9 12
REMARK SMILES IDX 14 13 11 14 2 15 1 16 3 17 18 19
REMARK H PARENT 3 18 18 20
ROOT
ATOM      1  C   UNL     1       8.058  -4.082   4.083  1.00  0.00    -0.014 A 
ATOM      2  C   UNL     1       8.914  -3.224   4.772  1.00  0.00     0.028 A 
ATOM      3  C   UNL     1       8.492  -5.357   3.720  1.00  0.00     0.013 A 
ATOM      4  C   UNL     1      10.206  -3.640   5.097  1.00  0.00     0.102 A 
ATOM      5  C   UNL     1      10.640  -4.914   4.734  1.00  0.00     0.130 A 
ATOM      6  C   UNL     1       9.782  -5.774   4.045  1.00  0.00     0.048 A 
ENDROOT
BRANCH   1   7
ATOM      7  C   UNL     1       6.719  -3.651   3.744  1.00  0.00     0.018 A 
ATOM      8  C   UNL     1       5.654  -3.932   4.601  1.00  0.00     0.133 A 
ATOM      9  C   UNL     1       4.365  -3.515   4.270  1.00  0.00     0.079 A 
ATOM     10  C   UNL     1       6.494  -2.952   2.558  1.00  0.00     0.015 A 
ATOM     11  C   UNL     1       4.140  -2.817   3.084  1.00  0.00     0.126 A 
ATOM     12  C   UNL     1       5.205  -2.535   2.229  1.00  0.00     0.040 A 
ATOM     13  F   UNL     1       5.852  -4.606   5.743  1.00  0.00    -0.206 F 
ATOM     14  F   UNL     1       2.903  -2.416   2.766  1.00  0.00    -0.207 F 
ENDBRANCH   1   7
BRANCH   4  15
ATOM     15  C   UNL     1      11.085  -2.728   5.817  1.00  0.00     0.339 C 
ATOM     16  O   UNL     1      11.140  -1.508   5.647  1.00  0.00    -0.246 OA
BRANCH  15  17
ATOM     17  O   UNL     1      11.866  -3.372   6.727  1.00  0.00    -0.478 OA
ATOM     18  H   UNL     1      12.579  -3.887   6.295  1.00  0.00     0.297 HD
ENDBRANCH  15  17
ENDBRANCH   4  15
BRANCH   5  19
ATOM     19  O   UNL     1      11.897  -5.340   5.043  1.00  0.00    -0.507 OA
ATOM     20  H   UNL     1      11.961  -5.468   6.006  1.00  0.00     0.293 HD
ENDBRANCH   5  19
TORSDOF 4
ENDMDL
MODEL 8
REMARK VINA RESULT:    -5.290      4.533      6.879
REMARK INTER + INTRA:          -6.797
REMARK INTER:                  -5.717
REMARK INTRA:                  -1.080
REMARK UNBOUND:                -0.579
REMARK SMILES O=C(O)c1cc(-c2ccc(F)cc2F)ccc1O
REMARK SMILES IDX 6 1 5 2 15 3 4 4 17 5 16 6 7 7 13 8 12 9 8 10 10 11 9 12
REMARK SMILES IDX 14 13 11 14 2 15 1 16 3 17 18 19
REMARK H PARENT 3 18 18 20
ROOT
ATOM      1  C   UNL     1       8.196  -3.721   3.918  1.00  0.00    -0.014 A 
ATOM      2  C   UNL     1       8.460  -5.026   3.506  1.00  0.00     0.028 A 
ATOM      3  C   UNL     1       9.126  -3.033   4.698  1.00  0.00     0.013 A 
ATOM      4  C   UNL     1       9.654  -5.646   3.875  1.00  0.00     0.102 A 
ATOM      5  C   UNL     1      10.584  -4.959   4.655  1.00  0.00     0.130 A 
ATOM      6  C   UNL     1      10.320  -3.652   5.067  1.00  0.00     0.048 A 
ENDROOT
BRANCH   1   7
ATOM      7  C   UNL     1       6.957  -3.077   3.537  1.00  0.00     0.018 A 
ATOM      8  C   UNL     1       6.906  -2.275   2.396  1.00  0.00     0.133 A 
ATOM      9  C   UNL     1       5.709  -1.656   2.033  1.00  0.00     0.079 A 
ATOM     10  C   UNL     1       5.812  -3.262   4.311  1.00  0.00     0.015 A 
ATOM     11  C   UNL     1       4.565  -1.841   2.808  1.00  0.00     0.126 A 
ATOM     12  C   UNL     1       4.617  -2.644   3.947  1.00  0.00     0.040 A 
ATOM     13  F   UNL     1       7.998  -2.085   1.642  1.00  0.00    -0.206 F 
ATOM     14  F   UNL     1       3.416  -1.248   2.460  1.00  0.00    -0.207 F 
ENDBRANCH   1   7
BRANCH   4  15
ATOM     15  C   UNL     1       9.911  -7.010   3.435  1.00  0.00     0.339 C 
ATOM     16  O   UNL     1      10.915  -7.672   3.710  1.00  0.00    -0.246 OA
BRANCH  15  17
ATOM     17  O   UNL     1       8.904  -7.505   2.665  1.00  0.00    -0.478 OA
ATOM     18  H   UNL     1       8.746  -8.457   2.839  1.00  0.00     0.297 HD
ENDBRANCH  15  17
ENDBRANCH   4  15
BRANCH   5  19
ATOM     19  O   UNL     1      11.757  -5.546   5.025  1.00  0.00    -0.507 OA
ATOM     20  H   UNL     1      11.562  -6.327   5.573  1.00  0.00     0.293 HD
ENDBRANCH   5  19
TORSDOF 4
ENDMDL
MODEL 9
REMARK VINA RESULT:    -5.290      4.401      6.731
REMARK INTER + INTRA:          -6.796
REMARK INTER:                  -5.725
REMARK INTRA:                  -1.072
REMARK UNBOUND:                -0.579
REMARK SMILES O=C(O)c1cc(-c2ccc(F)cc2F)ccc1O
REMARK SMILES IDX 6 1 5 2 15 3 4 4 17 5 16 6 7 7 13 8 12 9 8 10 10 11 9 12
REMARK SMILES IDX 14 13 11 14 2 15 1 16 3 17 18 19
REMARK H PARENT 3 18 18 20
ROOT
ATOM      1  C   UNL     1       8.083  -3.946   4.026  1.00  0.00    -0.014 A 
ATOM      2  C   UNL     1       8.468  -5.234   3.654  1.00  0.00     0.028 A 
ATOM      3  C   UNL     1       8.965  -3.133   4.738  1.00  0.00     0.013 A 
ATOM      4  C   UNL     1       9.735  -5.710   3.995  1.00  0.00     0.102 A 
ATOM      5  C   UNL     1      10.616  -4.897   4.708  1.00  0.00     0.130 A 
ATOM      6  C   UNL     1      10.231  -3.608   5.080  1.00  0.00     0.048 A 
ENDROOT
BRANCH   1   7
ATOM      7  C   UNL     1       6.770  -3.453   3.673  1.00  0.00     0.018 A 
ATOM      8  C   UNL     1       5.668  -3.761   4.472  1.00  0.00     0.133 A 
ATOM      9  C   UNL     1       4.403  -3.284   4.128  1.00  0.00     0.079 A 
ATOM     10  C   UNL     1       6.606  -2.666   2.533  1.00  0.00     0.015 A 
ATOM     11  C   UNL     1       4.240  -2.498   2.988  1.00  0.00     0.126 A 
ATOM     12  C   UNL     1       5.342  -2.188   2.191  1.00  0.00     0.040 A 
ATOM     13  F   UNL     1       5.807  -4.519   5.569  1.00  0.00    -0.206 F 
ATOM     14  F   UNL     1       3.026  -2.039   2.658  1.00  0.00    -0.207 F 
ENDBRANCH   1   7
BRANCH   4  15
ATOM     15  C   UNL     1      10.118  -7.057   3.598  1.00  0.00     0.339 C 
ATOM     16  O   UNL     1      11.171  -7.620   3.906  1.00  0.00    -0.246 OA
BRANCH  15  17
ATOM     17  O   UNL     1       9.170  -7.659   2.828  1.00  0.00    -0.478 OA
ATOM     18  H   UNL     1       9.077  -7.223   1.956  1.00  0.00     0.297 HD
ENDBRANCH  15  17
ENDBRANCH   4  15
BRANCH   5  19
ATOM     19  O   UNL     1      11.858  -5.342   5.051  1.00  0.00    -0.507 OA
ATOM     20  H   UNL     1      12.078  -5.015   5.940  1.00  0.00     0.293 HD
ENDBRANCH   5  19
TORSDOF 4
ENDMDL
