MODEL 1
REMARK VINA RESULT:    -5.265      0.000      0.000
REMARK INTER + INTRA:          -7.293
REMARK INTER:                  -6.496
REMARK INTRA:                  -0.797
REMARK UNBOUND:                -0.797
REMARK SMILES Cc1ccc(C(=O)c2cc(O)c(O)c([N+](=O)[O-])c2)cc1
REMARK SMILES IDX 8 1 18 2 9 3 14 4 10 5 12 6 6 7 7 8 5 9 4 10 19 11 3 12
REMARK SMILES IDX 20 13 2 14 1 15 15 16 17 17 16 18 11 19 13 21
REMARK H PARENT 11 20 13 22
ROOT
ATOM      1  C   UNL     1       5.722  -0.060   1.785  1.00  0.00     0.033 A 
ATOM      2  C   UNL     1       5.488  -0.728   0.606  1.00  0.00     0.102 A 
ATOM      3  C   UNL     1       4.734   0.600   2.477  1.00  0.00     0.063 A 
ATOM      4  C   UNL     1       4.192  -0.738   0.090  1.00  0.00     0.315 A 
ATOM      5  C   UNL     1       3.438   0.591   1.961  1.00  0.00     0.165 A 
ATOM      6  C   UNL     1       3.167  -0.079   0.768  1.00  0.00     0.237 A 
ENDROOT
BRANCH   1   7
ATOM      7  C   UNL     1       7.110  -0.049   2.337  1.00  0.00     0.193 C 
ATOM      8  O   UNL     1       7.232  -0.086   3.571  1.00  0.00    -0.289 OA
BRANCH   7   9
ATOM      9  C   UNL     1       8.288   0.002   1.486  1.00  0.00     0.023 A 
ATOM     10  C   UNL     1       8.866   1.231   1.168  1.00  0.00     0.012 A 
ATOM     11  C   UNL     1       8.839  -1.177   0.987  1.00  0.00     0.012 A 
ATOM     12  C   UNL     1       9.996   1.280   0.352  1.00  0.00     0.004 A 
ATOM     13  C   UNL     1       9.970  -1.129   0.170  1.00  0.00     0.004 A 
ATOM     14  C   UNL     1      10.548   0.100  -0.148  1.00  0.00    -0.051 A 
ATOM     15  C   UNL     1      11.755   0.152  -1.022  1.00  0.00     0.044 C 
ENDBRANCH   7   9
ENDBRANCH   1   7
BRANCH   4  16
ATOM     16  N   UNL     1       3.935  -1.426  -1.128  1.00  0.00     0.066 N 
ATOM     17  O   UNL     1       4.630  -2.431  -1.414  1.00  0.00    -0.258 OA
ATOM     18  O   UNL     1       3.023  -1.008  -1.878  1.00  0.00    -0.258 OA
ENDBRANCH   4  16
BRANCH   5  19
ATOM     19  O   UNL     1       2.446   1.239   2.634  1.00  0.00    -0.504 OA
ATOM     20  H   UNL     1       1.669   0.660   2.705  1.00  0.00     0.293 HD
ENDBRANCH   5  19
BRANCH   6  21
ATOM     21  O   UNL     1       1.895  -0.082   0.273  1.00  0.00    -0.500 OA
ATOM     22  H   UNL     1       1.263   0.038   0.999  1.00  0.00     0.294 HD
ENDBRANCH   6  21
TORSDOF 5
ENDMDL
MODEL 2
REMARK VINA RESULT:    -5.260      2.041      3.548
REMARK INTER + INTRA:          -7.287
REMARK INTER:                  -6.464
REMARK INTRA:                  -0.824
REMARK UNBOUND:                -0.797
REMARK SMILES Cc1ccc(C(=O)c2cc(O)c(O)c([N+](=O)[O-])c2)cc1
REMARK SMILES IDX 8 1 18 2 9 3 14 4 10 5 12 6 6 7 7 8 5 9 4 10 19 11 3 12
REMARK SMILES IDX 20 13 2 14 1 15 15 16 17 17 16 18 11 19 13 21
REMARK H PARENT 11 20 13 22
ROOT
ATOM      1  C   UNL     1       5.952   0.202   0.054  1.00  0.00     0.033 A 
ATOM      2  C   UNL     1       5.359   0.917   1.069  1.00  0.00     0.102 A 
ATOM      3  C   UNL     1       5.248  -0.630  -0.783  1.00  0.00     0.063 A 
ATOM      4  C   UNL     1       3.982   0.793   1.256  1.00  0.00     0.315 A 
ATOM      5  C   UNL     1       3.871  -0.755  -0.596  1.00  0.00     0.165 A 
ATOM      6  C   UNL     1       3.238  -0.043   0.423  1.00  0.00     0.237 A 
ENDROOT
BRANCH   1   7
ATOM      7  C   UNL     1       7.427   0.335  -0.146  1.00  0.00     0.193 C 
ATOM      8  O   UNL     1       7.837   0.425  -1.313  1.00  0.00    -0.289 OA
BRANCH   7   9
ATOM      9  C   UNL     1       8.365   0.360   0.965  1.00  0.00     0.023 A 
ATOM     10  C   UNL     1       8.936  -0.828   1.423  1.00  0.00     0.012 A 
ATOM     11  C   UNL     1       8.695   1.571   1.572  1.00  0.00     0.012 A 
ATOM     12  C   UNL     1       9.836  -0.803   2.488  1.00  0.00     0.004 A 
ATOM     13  C   UNL     1       9.596   1.596   2.638  1.00  0.00     0.004 A 
ATOM     14  C   UNL     1      10.167   0.409   3.096  1.00  0.00    -0.051 A 
ATOM     15  C   UNL     1      11.128   0.434   4.235  1.00  0.00     0.044 C 
ENDBRANCH   7   9
ENDBRANCH   1   7
BRANCH   4  16
ATOM     16  N   UNL     1       3.355   1.526   2.300  1.00  0.00     0.066 N 
ATOM     17  O   UNL     1       3.762   2.685   2.557  1.00  0.00    -0.258 OA
ATOM     18  O   UNL     1       2.414   0.993   2.933  1.00  0.00    -0.258 OA
ENDBRANCH   4  16
BRANCH   5  19
ATOM     19  O   UNL     1       3.157  -1.574  -1.417  1.00  0.00    -0.504 OA
ATOM     20  H   UNL     1       2.560  -1.042  -1.969  1.00  0.00     0.293 HD
ENDBRANCH   5  19
BRANCH   6  21
ATOM     21  O   UNL     1       1.891  -0.172   0.596  1.00  0.00    -0.500 OA
ATOM     22  H   UNL     1       1.713  -0.760   1.347  1.00  0.00     0.294 HD
ENDBRANCH   6  21
TORSDOF 5
ENDMDL
MODEL 3
REMARK VINA RESULT:    -4.200      1.960      2.392
REMARK INTER + INTRA:          -5.979
REMARK INTER:                  -5.256
REMARK INTRA:                  -0.723
REMARK UNBOUND:                -0.797
REMARK SMILES Cc1ccc(C(=O)c2cc(O)c(O)c([N+](=O)[O-])c2)cc1
REMARK SMILES IDX 8 1 18 2 9 3 14 4 10 5 12 6 6 7 7 8 5 9 4 10 19 11 3 12
REMARK SMILES IDX 20 13 2 14 1 15 15 16 17 17 16 18 11 19 13 21
REMARK H PARENT 11 20 13 22
ROOT
ATOM      1  C   UNL     1       6.426   0.287   0.306  1.00  0.00     0.033 A 
ATOM      2  C   UNL     1       5.731  -0.571  -0.515  1.00  0.00     0.102 A 
ATOM      3  C   UNL     1       5.811   1.093   1.234  1.00  0.00     0.063 A 
ATOM      4  C   UNL     1       4.342  -0.626  -0.400  1.00  0.00     0.315 A 
ATOM      5  C   UNL     1       4.422   1.039   1.349  1.00  0.00     0.165 A 
ATOM      6  C   UNL     1       3.687   0.179   0.532  1.00  0.00     0.237 A 
ENDROOT
BRANCH   1   7
ATOM      7  C   UNL     1       7.914   0.346   0.182  1.00  0.00     0.193 C 
ATOM      8  O   UNL     1       8.387   0.404  -0.963  1.00  0.00    -0.289 OA
BRANCH   7   9
ATOM      9  C   UNL     1       8.793   0.338   1.340  1.00  0.00     0.023 A 
ATOM     10  C   UNL     1       9.128   1.537   1.970  1.00  0.00     0.012 A 
ATOM     11  C   UNL     1       9.302  -0.868   1.821  1.00  0.00     0.012 A 
ATOM     12  C   UNL     1       9.972   1.529   3.080  1.00  0.00     0.004 A 
ATOM     13  C   UNL     1      10.146  -0.877   2.932  1.00  0.00     0.004 A 
ATOM     14  C   UNL     1      10.481   0.322   3.562  1.00  0.00    -0.051 A 
ATOM     15  C   UNL     1      11.383   0.314   4.749  1.00  0.00     0.044 C 
ENDBRANCH   7   9
ENDBRANCH   1   7
BRANCH   4  16
ATOM     16  N   UNL     1       3.610  -1.508  -1.241  1.00  0.00     0.066 N 
ATOM     17  O   UNL     1       2.755  -1.029  -2.024  1.00  0.00    -0.258 OA
ATOM     18  O   UNL     1       3.842  -2.738  -1.176  1.00  0.00    -0.258 OA
ENDBRANCH   4  16
BRANCH   5  19
ATOM     19  O   UNL     1       3.796   1.830   2.265  1.00  0.00    -0.504 OA
ATOM     20  H   UNL     1       3.483   1.286   3.006  1.00  0.00     0.293 HD
ENDBRANCH   5  19
BRANCH   6  21
ATOM     21  O   UNL     1       2.329   0.134   0.655  1.00  0.00    -0.500 OA
ATOM     22  H   UNL     1       2.054  -0.760   0.911  1.00  0.00     0.294 HD
ENDBRANCH   6  21
TORSDOF 5
ENDMDL
MODEL 4
REMARK VINA RESULT:    -4.182      1.259      2.713
REMARK INTER + INTRA:          -5.957
REMARK INTER:                  -5.229
REMARK INTRA:                  -0.727
REMARK UNBOUND:                -0.797
REMARK SMILES Cc1ccc(C(=O)c2cc(O)c(O)c([N+](=O)[O-])c2)cc1
REMARK SMILES IDX 8 1 18 2 9 3 14 4 10 5 12 6 6 7 7 8 5 9 4 10 19 11 3 12
REMARK SMILES IDX 20 13 2 14 1 15 15 16 17 17 16 18 11 19 13 21
REMARK H PARENT 11 20 13 22
ROOT
ATOM      1  C   UNL     1       6.261  -0.096   1.657  1.00  0.00     0.033 A 
ATOM      2  C   UNL     1       5.323   0.696   2.278  1.00  0.00     0.102 A 
ATOM      3  C   UNL     1       5.955  -0.936   0.613  1.00  0.00     0.063 A 
ATOM      4  C   UNL     1       4.004   0.647   1.826  1.00  0.00     0.315 A 
ATOM      5  C   UNL     1       4.636  -0.987   0.161  1.00  0.00     0.165 A 
ATOM      6  C   UNL     1       3.660  -0.194   0.768  1.00  0.00     0.237 A 
ENDROOT
BRANCH   1   7
ATOM      7  C   UNL     1       7.673  -0.043   2.141  1.00  0.00     0.193 C 
ATOM      8  O   UNL     1       7.856  -0.078   3.367  1.00  0.00    -0.289 OA
BRANCH   7   9
ATOM      9  C   UNL     1       8.806   0.044   1.233  1.00  0.00     0.023 A 
ATOM     10  C   UNL     1       9.320   1.292   0.878  1.00  0.00     0.012 A 
ATOM     11  C   UNL     1       9.378  -1.118   0.718  1.00  0.00     0.012 A 
ATOM     12  C   UNL     1      10.406   1.375   0.007  1.00  0.00     0.004 A 
ATOM     13  C   UNL     1      10.465  -1.035  -0.154  1.00  0.00     0.004 A 
ATOM     14  C   UNL     1      10.979   0.212  -0.509  1.00  0.00    -0.051 A 
ATOM     15  C   UNL     1      12.139   0.303  -1.441  1.00  0.00     0.044 C 
ENDBRANCH   7   9
ENDBRANCH   1   7
BRANCH   4  16
ATOM     16  N   UNL     1       3.024   1.461   2.457  1.00  0.00     0.066 N 
ATOM     17  O   UNL     1       3.170   2.707   2.443  1.00  0.00    -0.258 OA
ATOM     18  O   UNL     1       2.041   0.910   3.006  1.00  0.00    -0.258 OA
ENDBRANCH   4  16
BRANCH   5  19
ATOM     19  O   UNL     1       4.315  -1.813  -0.873  1.00  0.00    -0.504 OA
ATOM     20  H   UNL     1       4.557  -1.390  -1.714  1.00  0.00     0.293 HD
ENDBRANCH   5  19
BRANCH   6  21
ATOM     21  O   UNL     1       2.374  -0.252   0.317  1.00  0.00    -0.500 OA
ATOM     22  H   UNL     1       2.168  -1.156   0.032  1.00  0.00     0.294 HD
ENDBRANCH   6  21
TORSDOF 5
ENDMDL
MODEL 5
REMARK VINA RESULT:    -4.130      3.768      7.011
REMARK INTER + INTRA:          -5.893
REMARK INTER:                  -4.901
REMARK INTRA:                  -0.992
REMARK UNBOUND:                -0.797
REMARK SMILES Cc1ccc(C(=O)c2cc(O)c(O)c([N+](=O)[O-])c2)cc1
REMARK SMILES IDX 8 1 18 2 9 3 14 4 10 5 12 6 6 7 7 8 5 9 4 10 19 11 3 12
REMARK SMILES IDX 20 13 2 14 1 15 15 16 17 17 16 18 11 19 13 21
REMARK H PARENT 11 20 13 22
ROOT
ATOM      1  C   UNL     1       9.119   0.825   1.382  1.00  0.00     0.033 A 
ATOM      2  C   UNL     1       9.745   0.726   2.603  1.00  0.00     0.102 A 
ATOM      3  C   UNL     1       9.785   0.682   0.188  1.00  0.00     0.063 A 
ATOM      4  C   UNL     1      11.116   0.467   2.630  1.00  0.00     0.315 A 
ATOM      5  C   UNL     1      11.156   0.425   0.215  1.00  0.00     0.165 A 
ATOM      6  C   UNL     1      11.821   0.316   1.437  1.00  0.00     0.237 A 
ENDROOT
BRANCH   1   7
ATOM      7  C   UNL     1       7.651   1.102   1.352  1.00  0.00     0.193 C 
ATOM      8  O   UNL     1       7.248   2.100   1.969  1.00  0.00    -0.289 OA
BRANCH   7   9
ATOM      9  C   UNL     1       6.712   0.254   0.636  1.00  0.00     0.023 A 
ATOM     10  C   UNL     1       5.850   0.810  -0.309  1.00  0.00     0.012 A 
ATOM     11  C   UNL     1       6.673  -1.116   0.895  1.00  0.00     0.012 A 
ATOM     12  C   UNL     1       4.950  -0.004  -0.995  1.00  0.00     0.004 A 
ATOM     13  C   UNL     1       5.772  -1.931   0.208  1.00  0.00     0.004 A 
ATOM     14  C   UNL     1       4.910  -1.375  -0.738  1.00  0.00    -0.051 A 
ATOM     15  C   UNL     1       3.946  -2.244  -1.471  1.00  0.00     0.044 C 
ENDBRANCH   7   9
ENDBRANCH   1   7
BRANCH   4  16
ATOM     16  N   UNL     1      11.777   0.361   3.884  1.00  0.00     0.066 N 
ATOM     17  O   UNL     1      11.131  -0.054   4.877  1.00  0.00    -0.258 OA
ATOM     18  O   UNL     1      12.985   0.683   3.962  1.00  0.00    -0.258 OA
ENDBRANCH   4  16
BRANCH   5  19
ATOM     19  O   UNL     1      11.832   0.279  -0.959  1.00  0.00    -0.504 OA
ATOM     20  H   UNL     1      12.329  -0.556  -0.947  1.00  0.00     0.293 HD
ENDBRANCH   5  19
BRANCH   6  21
ATOM     21  O   UNL     1      13.162   0.063   1.450  1.00  0.00    -0.500 OA
ATOM     22  H   UNL     1      13.406  -0.447   0.663  1.00  0.00     0.294 HD
ENDBRANCH   6  21
TORSDOF 5
ENDMDL
MODEL 6
REMARK VINA RESULT:    -4.112      3.717      6.804
REMARK INTER + INTRA:          -5.871
REMARK INTER:                  -4.888
REMARK INTRA:                  -0.983
REMARK UNBOUND:                -0.797
REMARK SMILES Cc1ccc(C(=O)c2cc(O)c(O)c([N+](=O)[O-])c2)cc1
REMARK SMILES IDX 8 1 18 2 9 3 14 4 10 5 12 6 6 7 7 8 5 9 4 10 19 11 3 12
REMARK SMILES IDX 20 13 2 14 1 15 15 16 17 17 16 18 11 19 13 21
REMARK H PARENT 11 20 13 22
ROOT
ATOM      1  C   UNL     1       9.201  -0.426   1.280  1.00  0.00     0.033 A 
ATOM      2  C   UNL     1      10.088  -0.260   0.242  1.00  0.00     0.102 A 
ATOM      3  C   UNL     1       9.550  -0.243   2.597  1.00  0.00     0.063 A 
ATOM      4  C   UNL     1      11.399   0.111   0.538  1.00  0.00     0.315 A 
ATOM      5  C   UNL     1      10.862   0.128   2.893  1.00  0.00     0.165 A 
ATOM      6  C   UNL     1      11.787   0.306   1.863  1.00  0.00     0.237 A 
ENDROOT
BRANCH   1   7
ATOM      7  C   UNL     1       7.796  -0.825   0.963  1.00  0.00     0.193 C 
ATOM      8  O   UNL     1       7.635  -1.855   0.291  1.00  0.00    -0.289 OA
BRANCH   7   9
ATOM      9  C   UNL     1       6.647  -0.055   1.411  1.00  0.00     0.023 A 
ATOM     10  C   UNL     1       6.574   1.312   1.141  1.00  0.00     0.012 A 
ATOM     11  C   UNL     1       5.617  -0.682   2.112  1.00  0.00     0.012 A 
ATOM     12  C   UNL     1       5.472   2.050   1.571  1.00  0.00     0.004 A 
ATOM     13  C   UNL     1       4.514   0.056   2.542  1.00  0.00     0.004 A 
ATOM     14  C   UNL     1       4.441   1.422   2.272  1.00  0.00    -0.051 A 
ATOM     15  C   UNL     1       3.264   2.212   2.732  1.00  0.00     0.044 C 
ENDBRANCH   7   9
ENDBRANCH   1   7
BRANCH   4  16
ATOM     16  N   UNL     1      12.327   0.287  -0.525  1.00  0.00     0.066 N 
ATOM     17  O   UNL     1      13.544   0.074  -0.308  1.00  0.00    -0.258 OA
ATOM     18  O   UNL     1      11.902   0.649  -1.646  1.00  0.00    -0.258 OA
ENDBRANCH   4  16
BRANCH   5  19
ATOM     19  O   UNL     1      11.226   0.315   4.193  1.00  0.00    -0.504 OA
ATOM     20  H   UNL     1      11.491   1.240   4.327  1.00  0.00     0.293 HD
ENDBRANCH   5  19
BRANCH   6  21
ATOM     21  O   UNL     1      13.067   0.670   2.166  1.00  0.00    -0.500 OA
ATOM     22  H   UNL     1      13.137   1.637   2.174  1.00  0.00     0.294 HD
ENDBRANCH   6  21
TORSDOF 5
ENDMDL
MODEL 7
REMARK VINA RESULT:    -4.040      3.651      6.526
REMARK INTER + INTRA:          -5.782
REMARK INTER:                  -4.832
REMARK INTRA:                  -0.950
REMARK UNBOUND:                -0.797
REMARK SMILES Cc1ccc(C(=O)c2cc(O)c(O)c([N+](=O)[O-])c2)cc1
REMARK SMILES IDX 8 1 18 2 9 3 14 4 10 5 12 6 6 7 7 8 5 9 4 10 19 11 3 12
REMARK SMILES IDX 20 13 2 14 1 15 15 16 17 17 16 18 11 19 13 21
REMARK H PARENT 11 20 13 22
ROOT
ATOM      1  C   UNL     1       9.049   0.891   1.465  1.00  0.00     0.033 A 
ATOM      2  C   UNL     1       9.760   0.727   0.299  1.00  0.00     0.102 A 
ATOM      3  C   UNL     1       9.626   0.809   2.709  1.00  0.00     0.063 A 
ATOM      4  C   UNL     1      11.128   0.467   0.383  1.00  0.00     0.315 A 
ATOM      5  C   UNL     1      10.994   0.548   2.794  1.00  0.00     0.165 A 
ATOM      6  C   UNL     1      11.745   0.377   1.630  1.00  0.00     0.237 A 
ENDROOT
BRANCH   1   7
ATOM      7  C   UNL     1       7.583   1.170   1.375  1.00  0.00     0.193 C 
ATOM      8  O   UNL     1       7.162   2.187   1.945  1.00  0.00    -0.289 OA
BRANCH   7   9
ATOM      9  C   UNL     1       6.667   0.300   0.654  1.00  0.00     0.023 A 
ATOM     10  C   UNL     1       5.802   0.836  -0.300  1.00  0.00     0.012 A 
ATOM     11  C   UNL     1       6.654  -1.069   0.915  1.00  0.00     0.012 A 
ATOM     12  C   UNL     1       4.923   0.002  -0.991  1.00  0.00     0.004 A 
ATOM     13  C   UNL     1       5.776  -1.905   0.224  1.00  0.00     0.004 A 
ATOM     14  C   UNL     1       4.910  -1.369  -0.730  1.00  0.00    -0.051 A 
ATOM     15  C   UNL     1       3.970  -2.259  -1.468  1.00  0.00     0.044 C 
ENDBRANCH   7   9
ENDBRANCH   1   7
BRANCH   4  16
ATOM     16  N   UNL     1      11.876   0.295  -0.813  1.00  0.00     0.066 N 
ATOM     17  O   UNL     1      11.285  -0.100  -1.847  1.00  0.00    -0.258 OA
ATOM     18  O   UNL     1      13.104   0.545  -0.801  1.00  0.00    -0.258 OA
ENDBRANCH   4  16
BRANCH   5  19
ATOM     19  O   UNL     1      11.584   0.464   4.020  1.00  0.00    -0.504 OA
ATOM     20  H   UNL     1      12.303  -0.188   3.990  1.00  0.00     0.293 HD
ENDBRANCH   5  19
BRANCH   6  21
ATOM     21  O   UNL     1      13.083   0.123   1.726  1.00  0.00    -0.500 OA
ATOM     22  H   UNL     1      13.416  -0.195   0.873  1.00  0.00     0.294 HD
ENDBRANCH   6  21
TORSDOF 5
ENDMDL
MODEL 8
REMARK VINA RESULT:    -4.010      3.512      7.209
REMARK INTER + INTRA:          -5.745
REMARK INTER:                  -4.873
REMARK INTRA:                  -0.872
REMARK UNBOUND:                -0.797
REMARK SMILES Cc1ccc(C(=O)c2cc(O)c(O)c([N+](=O)[O-])c2)cc1
REMARK SMILES IDX 8 1 18 2 9 3 14 4 10 5 12 6 6 7 7 8 5 9 4 10 19 11 3 12
REMARK SMILES IDX 20 13 2 14 1 15 15 16 17 17 16 18 11 19 13 21
REMARK H PARENT 11 20 13 22
ROOT
ATOM      1  C   UNL     1       9.137  -0.479   1.151  1.00  0.00     0.033 A 
ATOM      2  C   UNL     1       9.537  -0.282   2.453  1.00  0.00     0.102 A 
ATOM      3  C   UNL     1       9.984  -0.330   0.079  1.00  0.00     0.063 A 
ATOM      4  C   UNL     1      10.860   0.085   2.695  1.00  0.00     0.315 A 
ATOM      5  C   UNL     1      11.308   0.038   0.322  1.00  0.00     0.165 A 
ATOM      6  C   UNL     1      11.746   0.244   1.630  1.00  0.00     0.237 A 
ENDROOT
BRANCH   1   7
ATOM      7  C   UNL     1       7.719  -0.872   0.891  1.00  0.00     0.193 C 
ATOM      8  O   UNL     1       7.526  -1.913   0.246  1.00  0.00    -0.289 OA
BRANCH   7   9
ATOM      9  C   UNL     1       6.592  -0.083   1.364  1.00  0.00     0.023 A 
ATOM     10  C   UNL     1       5.544  -0.703   2.045  1.00  0.00     0.012 A 
ATOM     11  C   UNL     1       6.560   1.293   1.138  1.00  0.00     0.012 A 
ATOM     12  C   UNL     1       4.464   0.054   2.498  1.00  0.00     0.004 A 
ATOM     13  C   UNL     1       5.479   2.050   1.592  1.00  0.00     0.004 A 
ATOM     14  C   UNL     1       4.431   1.430   2.273  1.00  0.00    -0.051 A 
ATOM     15  C   UNL     1       3.275   2.238   2.757  1.00  0.00     0.044 C 
ENDBRANCH   7   9
ENDBRANCH   1   7
BRANCH   4  16
ATOM     16  N   UNL     1      11.289   0.292   4.035  1.00  0.00     0.066 N 
ATOM     17  O   UNL     1      10.424   0.466   4.928  1.00  0.00    -0.258 OA
ATOM     18  O   UNL     1      12.516   0.294   4.285  1.00  0.00    -0.258 OA
ENDBRANCH   4  16
BRANCH   5  19
ATOM     19  O   UNL     1      12.163   0.189  -0.729  1.00  0.00    -0.504 OA
ATOM     20  H   UNL     1      11.676   0.530  -1.498  1.00  0.00     0.293 HD
ENDBRANCH   5  19
BRANCH   6  21
ATOM     21  O   UNL     1      13.044   0.603   1.855  1.00  0.00    -0.500 OA
ATOM     22  H   UNL     1      13.098   1.561   1.993  1.00  0.00     0.294 HD
ENDBRANCH   6  21
TORSDOF 5
ENDMDL
MODEL 9
REMARK VINA RESULT:    -3.766      2.231      3.604
REMARK INTER + INTRA:          -5.444
REMARK INTER:                  -4.557
REMARK INTRA:                  -0.887
REMARK UNBOUND:                -0.797
REMARK SMILES Cc1ccc(C(=O)c2cc(O)c(O)c([N+](=O)[O-])c2)cc1
REMARK SMILES IDX 8 1 18 2 9 3 14 4 10 5 12 6 6 7 7 8 5 9 4 10 19 11 3 12
REMARK SMILES IDX 20 13 2 14 1 15 15 16 17 17 16 18 11 19 13 21
REMARK H PARENT 11 20 13 22
ROOT
ATOM      1  C   UNL     1       8.535   0.739   0.975  1.00  0.00     0.033 A 
ATOM      2  C   UNL     1       7.309   0.198   0.663  1.00  0.00     0.102 A 
ATOM      3  C   UNL     1       8.694   2.042   1.381  1.00  0.00     0.063 A 
ATOM      4  C   UNL     1       6.178   1.007   0.765  1.00  0.00     0.315 A 
ATOM      5  C   UNL     1       7.563   2.853   1.482  1.00  0.00     0.165 A 
ATOM      6  C   UNL     1       6.304   2.335   1.174  1.00  0.00     0.237 A 
ENDROOT
BRANCH   1   7
ATOM      7  C   UNL     1       9.747  -0.128   0.866  1.00  0.00     0.193 C 
ATOM      8  O   UNL     1       9.796  -1.132   1.593  1.00  0.00    -0.289 OA
BRANCH   7   9
ATOM      9  C   UNL     1      10.839   0.169  -0.047  1.00  0.00     0.023 A 
ATOM     10  C   UNL     1      12.154  -0.112   0.324  1.00  0.00     0.012 A 
ATOM     11  C   UNL     1      10.572   0.736  -1.293  1.00  0.00     0.012 A 
ATOM     12  C   UNL     1      13.201   0.173  -0.552  1.00  0.00     0.004 A 
ATOM     13  C   UNL     1      11.619   1.021  -2.170  1.00  0.00     0.004 A 
ATOM     14  C   UNL     1      12.935   0.740  -1.799  1.00  0.00    -0.051 A 
ATOM     15  C   UNL     1      14.054   1.046  -2.734  1.00  0.00     0.044 C 
ENDBRANCH   7   9
ENDBRANCH   1   7
BRANCH   4  16
ATOM     16  N   UNL     1       4.904   0.462   0.446  1.00  0.00     0.066 N 
ATOM     17  O   UNL     1       4.826  -0.415  -0.447  1.00  0.00    -0.258 OA
ATOM     18  O   UNL     1       3.897   0.873   1.068  1.00  0.00    -0.258 OA
ENDBRANCH   4  16
BRANCH   5  19
ATOM     19  O   UNL     1       7.701   4.147   1.883  1.00  0.00    -0.504 OA
ATOM     20  H   UNL     1       7.399   4.237   2.802  1.00  0.00     0.293 HD
ENDBRANCH   5  19
BRANCH   6  21
ATOM     21  O   UNL     1       5.205   3.137   1.277  1.00  0.00    -0.500 OA
ATOM     22  H   UNL     1       5.385   3.859   1.899  1.00  0.00     0.294 HD
ENDBRANCH   6  21
TORSDOF 5
ENDMDL
