MODEL 1
REMARK VINA RESULT:    -6.983      0.000      0.000
REMARK INTER + INTRA:          -8.864
REMARK INTER:                  -8.208
REMARK INTRA:                  -0.656
REMARK UNBOUND:                -0.656
REMARK SMILES O=C(O)c1cc(-c2ccc(F)cc2F)ccc1O
REMARK SMILES IDX 6 1 5 2 15 3 4 4 17 5 16 6 7 7 13 8 12 9 8 10 10 11 9 12
REMARK SMILES IDX 14 13 11 14 2 15 1 16 3 17 18 19
REMARK H PARENT 3 18 18 20
ROOT
ATOM      1  C   UNL     1       6.034   0.154   0.948  1.00  0.00    -0.014 A 
ATOM      2  C   UNL     1       5.232   0.848   1.853  1.00  0.00     0.028 A 
ATOM      3  C   UNL     1       5.449  -0.571  -0.090  1.00  0.00     0.013 A 
ATOM      4  C   UNL     1       3.843   0.818   1.720  1.00  0.00     0.102 A 
ATOM      5  C   UNL     1       3.258   0.093   0.682  1.00  0.00     0.130 A 
ATOM      6  C   UNL     1       4.061  -0.601  -0.223  1.00  0.00     0.048 A 
ENDROOT
BRANCH   1   7
ATOM      7  C   UNL     1       7.474   0.184   1.086  1.00  0.00     0.018 A 
ATOM      8  C   UNL     1       8.134   1.397   1.287  1.00  0.00     0.133 A 
ATOM      9  C   UNL     1       9.523   1.421   1.419  1.00  0.00     0.079 A 
ATOM     10  C   UNL     1       8.203  -1.003   1.018  1.00  0.00     0.015 A 
ATOM     11  C   UNL     1      10.251   0.234   1.350  1.00  0.00     0.126 A 
ATOM     12  C   UNL     1       9.591  -0.978   1.150  1.00  0.00     0.040 A 
ATOM     13  F   UNL     1       7.449   2.547   1.352  1.00  0.00    -0.206 F 
ATOM     14  F   UNL     1      11.584   0.257   1.477  1.00  0.00    -0.207 F 
ENDBRANCH   1   7
BRANCH   4  15
ATOM     15  C   UNL     1       3.023   1.550   2.675  1.00  0.00     0.339 C 
ATOM     16  O   UNL     1       2.012   1.113   3.230  1.00  0.00    -0.246 OA
BRANCH  15  17
ATOM     17  O   UNL     1       3.494   2.805   2.908  1.00  0.00    -0.478 OA
ATOM     18  H   UNL     1       3.557   3.330   2.082  1.00  0.00     0.297 HD
ENDBRANCH  15  17
ENDBRANCH   4  15
BRANCH   5  19
ATOM     19  O   UNL     1       1.903   0.051   0.535  1.00  0.00    -0.507 OA
ATOM     20  H   UNL     1       1.522  -0.485   1.251  1.00  0.00     0.293 HD
ENDBRANCH   5  19
TORSDOF 4
ENDMDL
MODEL 2
REMARK VINA RESULT:    -6.973      1.123      1.605
REMARK INTER + INTRA:          -8.851
REMARK INTER:                  -8.193
REMARK INTRA:                  -0.658
REMARK UNBOUND:                -0.656
REMARK SMILES O=C(O)c1cc(-c2ccc(F)cc2F)ccc1O
REMARK SMILES IDX 6 1 5 2 15 3 4 4 17 5 16 6 7 7 13 8 12 9 8 10 10 11 9 12
REMARK SMILES IDX 14 13 11 14 2 15 1 16 3 17 18 19
REMARK H PARENT 3 18 18 20
ROOT
ATOM      1  C   UNL     1       6.020   0.121   0.950  1.00  0.00    -0.014 A 
ATOM      2  C   UNL     1       5.224   0.824   1.853  1.00  0.00     0.028 A 
ATOM      3  C   UNL     1       5.428  -0.604  -0.084  1.00  0.00     0.013 A 
ATOM      4  C   UNL     1       3.835   0.803   1.723  1.00  0.00     0.102 A 
ATOM      5  C   UNL     1       3.243   0.078   0.689  1.00  0.00     0.130 A 
ATOM      6  C   UNL     1       4.040  -0.626  -0.215  1.00  0.00     0.048 A 
ENDROOT
BRANCH   1   7
ATOM      7  C   UNL     1       7.461   0.142   1.085  1.00  0.00     0.018 A 
ATOM      8  C   UNL     1       8.186  -1.050   1.041  1.00  0.00     0.133 A 
ATOM      9  C   UNL     1       9.575  -1.025   1.172  1.00  0.00     0.079 A 
ATOM     10  C   UNL     1       8.125   1.356   1.259  1.00  0.00     0.015 A 
ATOM     11  C   UNL     1      10.238   0.189   1.347  1.00  0.00     0.126 A 
ATOM     12  C   UNL     1       9.512   1.379   1.390  1.00  0.00     0.040 A 
ATOM     13  F   UNL     1       7.563  -2.226   0.877  1.00  0.00    -0.206 F 
ATOM     14  F   UNL     1      11.571   0.213   1.473  1.00  0.00    -0.207 F 
ENDBRANCH   1   7
BRANCH   4  15
ATOM     15  C   UNL     1       3.022   1.545   2.676  1.00  0.00     0.339 C 
ATOM     16  O   UNL     1       2.009   1.117   3.234  1.00  0.00    -0.246 OA
BRANCH  15  17
ATOM     17  O   UNL     1       3.501   2.798   2.902  1.00  0.00    -0.478 OA
ATOM     18  H   UNL     1       3.524   3.333   2.081  1.00  0.00     0.297 HD
ENDBRANCH  15  17
ENDBRANCH   4  15
BRANCH   5  19
ATOM     19  O   UNL     1       1.888   0.045   0.544  1.00  0.00    -0.507 OA
ATOM     20  H   UNL     1       1.501  -0.438   1.294  1.00  0.00     0.293 HD
ENDBRANCH   5  19
TORSDOF 4
ENDMDL
MODEL 3
REMARK VINA RESULT:    -6.957      1.725      3.218
REMARK INTER + INTRA:          -8.834
REMARK INTER:                  -8.180
REMARK INTRA:                  -0.653
REMARK UNBOUND:                -0.656
REMARK SMILES O=C(O)c1cc(-c2ccc(F)cc2F)ccc1O
REMARK SMILES IDX 6 1 5 2 15 3 4 4 17 5 16 6 7 7 13 8 12 9 8 10 10 11 9 12
REMARK SMILES IDX 14 13 11 14 2 15 1 16 3 17 18 19
REMARK H PARENT 3 18 18 20
ROOT
ATOM      1  C   UNL     1       6.041   0.011   0.931  1.00  0.00    -0.014 A 
ATOM      2  C   UNL     1       5.540  -0.735  -0.135  1.00  0.00     0.028 A 
ATOM      3  C   UNL     1       5.166   0.676   1.789  1.00  0.00     0.013 A 
ATOM      4  C   UNL     1       4.163  -0.817  -0.344  1.00  0.00     0.102 A 
ATOM      5  C   UNL     1       3.287  -0.152   0.515  1.00  0.00     0.130 A 
ATOM      6  C   UNL     1       3.789   0.595   1.581  1.00  0.00     0.048 A 
ENDROOT
BRANCH   1   7
ATOM      7  C   UNL     1       7.469   0.097   1.147  1.00  0.00     0.018 A 
ATOM      8  C   UNL     1       8.252  -1.057   1.124  1.00  0.00     0.133 A 
ATOM      9  C   UNL     1       9.629  -0.970   1.333  1.00  0.00     0.079 A 
ATOM     10  C   UNL     1       8.063   1.338   1.376  1.00  0.00     0.015 A 
ATOM     11  C   UNL     1      10.222   0.271   1.564  1.00  0.00     0.126 A 
ATOM     12  C   UNL     1       9.439   1.425   1.585  1.00  0.00     0.040 A 
ATOM     13  F   UNL     1       7.697  -2.258   0.907  1.00  0.00    -0.206 F 
ATOM     14  F   UNL     1      11.543   0.356   1.765  1.00  0.00    -0.207 F 
ENDBRANCH   1   7
BRANCH   4  15
ATOM     15  C   UNL     1       3.660  -1.602  -1.463  1.00  0.00     0.339 C 
ATOM     16  O   UNL     1       2.783  -1.240  -2.251  1.00  0.00    -0.246 OA
BRANCH  15  17
ATOM     17  O   UNL     1       4.270  -2.814  -1.561  1.00  0.00    -0.478 OA
ATOM     18  H   UNL     1       3.700  -3.538  -1.227  1.00  0.00     0.297 HD
ENDBRANCH  15  17
ENDBRANCH   4  15
BRANCH   5  19
ATOM     19  O   UNL     1       1.939  -0.220   0.329  1.00  0.00    -0.507 OA
ATOM     20  H   UNL     1       1.565   0.677   0.386  1.00  0.00     0.293 HD
ENDBRANCH   5  19
TORSDOF 4
ENDMDL
MODEL 4
REMARK VINA RESULT:    -6.945      1.330      2.785
REMARK INTER + INTRA:          -8.818
REMARK INTER:                  -8.166
REMARK INTRA:                  -0.653
REMARK UNBOUND:                -0.656
REMARK SMILES O=C(O)c1cc(-c2ccc(F)cc2F)ccc1O
REMARK SMILES IDX 6 1 5 2 15 3 4 4 17 5 16 6 7 7 13 8 12 9 8 10 10 11 9 12
REMARK SMILES IDX 14 13 11 14 2 15 1 16 3 17 18 19
REMARK H PARENT 3 18 18 20
ROOT
ATOM      1  C   UNL     1       6.030   0.047   0.926  1.00  0.00    -0.014 A 
ATOM      2  C   UNL     1       5.536  -0.710  -0.135  1.00  0.00     0.028 A 
ATOM      3  C   UNL     1       5.150   0.716   1.776  1.00  0.00     0.013 A 
ATOM      4  C   UNL     1       4.159  -0.799  -0.347  1.00  0.00     0.102 A 
ATOM      5  C   UNL     1       3.279  -0.130   0.503  1.00  0.00     0.130 A 
ATOM      6  C   UNL     1       3.774   0.628   1.565  1.00  0.00     0.048 A 
ENDROOT
BRANCH   1   7
ATOM      7  C   UNL     1       7.458   0.140   1.145  1.00  0.00     0.018 A 
ATOM      8  C   UNL     1       8.054   1.384   1.355  1.00  0.00     0.133 A 
ATOM      9  C   UNL     1       9.431   1.470   1.566  1.00  0.00     0.079 A 
ATOM     10  C   UNL     1       8.237  -1.016   1.148  1.00  0.00     0.015 A 
ATOM     11  C   UNL     1      10.209   0.314   1.568  1.00  0.00     0.126 A 
ATOM     12  C   UNL     1       9.612  -0.930   1.360  1.00  0.00     0.040 A 
ATOM     13  F   UNL     1       7.320   2.506   1.353  1.00  0.00    -0.206 F 
ATOM     14  F   UNL     1      11.531   0.395   1.771  1.00  0.00    -0.207 F 
ENDBRANCH   1   7
BRANCH   4  15
ATOM     15  C   UNL     1       3.663  -1.596  -1.461  1.00  0.00     0.339 C 
ATOM     16  O   UNL     1       2.784  -1.245  -2.253  1.00  0.00    -0.246 OA
BRANCH  15  17
ATOM     17  O   UNL     1       4.281  -2.805  -1.550  1.00  0.00    -0.478 OA
ATOM     18  H   UNL     1       5.044  -2.869  -0.939  1.00  0.00     0.297 HD
ENDBRANCH  15  17
ENDBRANCH   4  15
BRANCH   5  19
ATOM     19  O   UNL     1       1.931  -0.205   0.313  1.00  0.00    -0.507 OA
ATOM     20  H   UNL     1       1.481   0.017   1.147  1.00  0.00     0.293 HD
ENDBRANCH   5  19
TORSDOF 4
ENDMDL
MODEL 5
REMARK VINA RESULT:    -5.287      3.987      6.260
REMARK INTER + INTRA:          -6.870
REMARK INTER:                  -5.784
REMARK INTRA:                  -1.086
REMARK UNBOUND:                -0.656
REMARK SMILES O=C(O)c1cc(-c2ccc(F)cc2F)ccc1O
REMARK SMILES IDX 6 1 5 2 15 3 4 4 17 5 16 6 7 7 13 8 12 9 8 10 10 11 9 12
REMARK SMILES IDX 14 13 11 14 2 15 1 16 3 17 18 19
REMARK H PARENT 3 18 18 20
ROOT
ATOM      1  C   UNL     1       8.490   0.355   1.369  1.00  0.00    -0.014 A 
ATOM      2  C   UNL     1       9.138   0.378   2.603  1.00  0.00     0.028 A 
ATOM      3  C   UNL     1       9.235   0.302   0.191  1.00  0.00     0.013 A 
ATOM      4  C   UNL     1      10.532   0.348   2.660  1.00  0.00     0.102 A 
ATOM      5  C   UNL     1      11.277   0.295   1.482  1.00  0.00     0.130 A 
ATOM      6  C   UNL     1      10.628   0.272   0.247  1.00  0.00     0.048 A 
ENDROOT
BRANCH   1   7
ATOM      7  C   UNL     1       7.044   0.387   1.309  1.00  0.00     0.018 A 
ATOM      8  C   UNL     1       6.373   1.609   1.253  1.00  0.00     0.133 A 
ATOM      9  C   UNL     1       4.979   1.636   1.196  1.00  0.00     0.079 A 
ATOM     10  C   UNL     1       6.323  -0.806   1.306  1.00  0.00     0.015 A 
ATOM     11  C   UNL     1       4.258   0.443   1.194  1.00  0.00     0.126 A 
ATOM     12  C   UNL     1       4.930  -0.779   1.248  1.00  0.00     0.040 A 
ATOM     13  F   UNL     1       7.051   2.765   1.258  1.00  0.00    -0.206 F 
ATOM     14  F   UNL     1       2.920   0.467   1.139  1.00  0.00    -0.207 F 
ENDBRANCH   1   7
BRANCH   4  15
ATOM     15  C   UNL     1      11.190   0.372   3.959  1.00  0.00     0.339 C 
ATOM     16  O   UNL     1      12.410   0.383   4.141  1.00  0.00    -0.246 OA
BRANCH  15  17
ATOM     17  O   UNL     1      10.302   0.383   4.990  1.00  0.00    -0.478 OA
ATOM     18  H   UNL     1      10.517  -0.294   5.665  1.00  0.00     0.297 HD
ENDBRANCH  15  17
ENDBRANCH   4  15
BRANCH   5  19
ATOM     19  O   UNL     1      12.639   0.264   1.516  1.00  0.00    -0.507 OA
ATOM     20  H   UNL     1      12.955   0.924   2.157  1.00  0.00     0.293 HD
ENDBRANCH   5  19
TORSDOF 4
ENDMDL
MODEL 6
REMARK VINA RESULT:    -5.285      4.551      6.884
REMARK INTER + INTRA:          -6.868
REMARK INTER:                  -5.783
REMARK INTRA:                  -1.085
REMARK UNBOUND:                -0.656
REMARK SMILES O=C(O)c1cc(-c2ccc(F)cc2F)ccc1O
REMARK SMILES IDX 6 1 5 2 15 3 4 4 17 5 16 6 7 7 13 8 12 9 8 10 10 11 9 12
REMARK SMILES IDX 14 13 11 14 2 15 1 16 3 17 18 19
REMARK H PARENT 3 18 18 20
ROOT
ATOM      1  C   UNL     1       8.547   0.016   1.130  1.00  0.00    -0.014 A 
ATOM      2  C   UNL     1       9.462   0.056   0.079  1.00  0.00     0.028 A 
ATOM      3  C   UNL     1       8.994   0.110   2.448  1.00  0.00     0.013 A 
ATOM      4  C   UNL     1      10.825   0.190   0.344  1.00  0.00     0.102 A 
ATOM      5  C   UNL     1      11.272   0.284   1.662  1.00  0.00     0.130 A 
ATOM      6  C   UNL     1      10.356   0.244   2.714  1.00  0.00     0.048 A 
ENDROOT
BRANCH   1   7
ATOM      7  C   UNL     1       7.133  -0.124   0.855  1.00  0.00     0.018 A 
ATOM      8  C   UNL     1       6.565  -1.393   0.734  1.00  0.00     0.133 A 
ATOM      9  C   UNL     1       5.202  -1.523   0.469  1.00  0.00     0.079 A 
ATOM     10  C   UNL     1       6.338   1.013   0.712  1.00  0.00     0.015 A 
ATOM     11  C   UNL     1       4.407  -0.387   0.325  1.00  0.00     0.126 A 
ATOM     12  C   UNL     1       4.975   0.882   0.447  1.00  0.00     0.040 A 
ATOM     13  F   UNL     1       7.316  -2.495   0.867  1.00  0.00    -0.206 F 
ATOM     14  F   UNL     1       3.098  -0.511   0.070  1.00  0.00    -0.207 F 
ENDBRANCH   1   7
BRANCH   4  15
ATOM     15  C   UNL     1      11.765   0.230  -0.768  1.00  0.00     0.339 C 
ATOM     16  O   UNL     1      12.988   0.349  -0.665  1.00  0.00    -0.246 OA
BRANCH  15  17
ATOM     17  O   UNL     1      11.145   0.119  -1.974  1.00  0.00    -0.478 OA
ATOM     18  H   UNL     1      10.545   0.875  -2.147  1.00  0.00     0.297 HD
ENDBRANCH  15  17
ENDBRANCH   4  15
BRANCH   5  19
ATOM     19  O   UNL     1      12.600   0.416   1.943  1.00  0.00    -0.507 OA
ATOM     20  H   UNL     1      12.892  -0.353   2.463  1.00  0.00     0.293 HD
ENDBRANCH   5  19
TORSDOF 4
ENDMDL
MODEL 7
REMARK VINA RESULT:    -5.254      4.097      6.396
REMARK INTER + INTRA:          -6.831
REMARK INTER:                  -5.756
REMARK INTRA:                  -1.075
REMARK UNBOUND:                -0.656
REMARK SMILES O=C(O)c1cc(-c2ccc(F)cc2F)ccc1O
REMARK SMILES IDX 6 1 5 2 15 3 4 4 17 5 16 6 7 7 13 8 12 9 8 10 10 11 9 12
REMARK SMILES IDX 14 13 11 14 2 15 1 16 3 17 18 19
REMARK H PARENT 3 18 18 20
ROOT
ATOM      1  C   UNL     1       8.573   0.021   1.162  1.00  0.00    -0.014 A 
ATOM      2  C   UNL     1       9.032   0.171   2.470  1.00  0.00     0.028 A 
ATOM      3  C   UNL     1       9.480   0.001   0.102  1.00  0.00     0.013 A 
ATOM      4  C   UNL     1      10.399   0.300   2.719  1.00  0.00     0.102 A 
ATOM      5  C   UNL     1      11.306   0.280   1.659  1.00  0.00     0.130 A 
ATOM      6  C   UNL     1      10.846   0.131   0.350  1.00  0.00     0.048 A 
ENDROOT
BRANCH   1   7
ATOM      7  C   UNL     1       7.156  -0.112   0.902  1.00  0.00     0.018 A 
ATOM      8  C   UNL     1       6.583  -1.378   0.774  1.00  0.00     0.133 A 
ATOM      9  C   UNL     1       5.216  -1.501   0.524  1.00  0.00     0.079 A 
ATOM     10  C   UNL     1       6.362   1.029   0.782  1.00  0.00     0.015 A 
ATOM     11  C   UNL     1       4.423  -0.361   0.402  1.00  0.00     0.126 A 
ATOM     12  C   UNL     1       4.996   0.904   0.532  1.00  0.00     0.040 A 
ATOM     13  F   UNL     1       7.332  -2.484   0.885  1.00  0.00    -0.206 F 
ATOM     14  F   UNL     1       3.111  -0.479   0.162  1.00  0.00    -0.207 F 
ENDBRANCH   1   7
BRANCH   4  15
ATOM     15  C   UNL     1      10.858   0.455   4.092  1.00  0.00     0.339 C 
ATOM     16  O   UNL     1      11.995   0.793   4.431  1.00  0.00    -0.246 OA
BRANCH  15  17
ATOM     17  O   UNL     1       9.881   0.184   5.000  1.00  0.00    -0.478 OA
ATOM     18  H   UNL     1      10.163   0.398   5.914  1.00  0.00     0.297 HD
ENDBRANCH  15  17
ENDBRANCH   4  15
BRANCH   5  19
ATOM     19  O   UNL     1      12.645   0.405   1.882  1.00  0.00    -0.507 OA
ATOM     20  H   UNL     1      12.839   1.320   2.148  1.00  0.00     0.293 HD
ENDBRANCH   5  19
TORSDOF 4
ENDMDL
