MODEL 1
REMARK VINA RESULT:    -5.152      0.000      0.000
REMARK INTER + INTRA:          -7.158
REMARK INTER:                  -6.357
REMARK INTRA:                  -0.801
REMARK UNBOUND:                -0.801
REMARK SMILES Cc1ccc(C(=O)c2cc(O)c(O)c([N+](=O)[O-])c2)cc1
REMARK SMILES IDX 8 1 18 2 9 3 14 4 10 5 12 6 6 7 7 8 5 9 4 10 19 11 3 12
REMARK SMILES IDX 20 13 2 14 1 15 15 16 17 17 16 18 11 19 13 21
REMARK H PARENT 11 20 13 22
ROOT
ATOM      1  C   UNL     1       1.755   4.698  -5.663  1.00  0.00     0.033 A 
ATOM      2  C   UNL     1       2.791   3.793  -5.649  1.00  0.00     0.102 A 
ATOM      3  C   UNL     1       0.599   4.519  -4.941  1.00  0.00     0.063 A 
ATOM      4  C   UNL     1       2.664   2.645  -4.867  1.00  0.00     0.315 A 
ATOM      5  C   UNL     1       0.471   3.370  -4.159  1.00  0.00     0.165 A 
ATOM      6  C   UNL     1       1.505   2.433  -4.122  1.00  0.00     0.237 A 
ENDROOT
BRANCH   1   7
ATOM      7  C   UNL     1       1.891   5.928  -6.500  1.00  0.00     0.193 C 
ATOM      8  O   UNL     1       1.392   6.974  -6.059  1.00  0.00    -0.289 OA
BRANCH   7   9
ATOM      9  C   UNL     1       2.574   5.925  -7.783  1.00  0.00     0.023 A 
ATOM     10  C   UNL     1       1.851   5.721  -8.959  1.00  0.00     0.012 A 
ATOM     11  C   UNL     1       3.953   6.128  -7.840  1.00  0.00     0.012 A 
ATOM     12  C   UNL     1       2.507   5.719 -10.189  1.00  0.00     0.004 A 
ATOM     13  C   UNL     1       4.610   6.126  -9.071  1.00  0.00     0.004 A 
ATOM     14  C   UNL     1       3.887   5.922 -10.246  1.00  0.00    -0.051 A 
ATOM     15  C   UNL     1       4.588   5.919 -11.562  1.00  0.00     0.044 C 
ENDBRANCH   7   9
ENDBRANCH   1   7
BRANCH   4  16
ATOM     16  N   UNL     1       3.728   1.702  -4.842  1.00  0.00     0.066 N 
ATOM     17  O   UNL     1       4.903   2.109  -5.004  1.00  0.00    -0.258 OA
ATOM     18  O   UNL     1       3.460   0.491  -4.659  1.00  0.00    -0.258 OA
ENDBRANCH   4  16
BRANCH   5  19
ATOM     19  O   UNL     1      -0.668   3.176  -3.437  1.00  0.00    -0.504 OA
ATOM     20  H   UNL     1      -1.143   4.019  -3.347  1.00  0.00     0.293 HD
ENDBRANCH   5  19
BRANCH   6  21
ATOM     21  O   UNL     1       1.368   1.314  -3.353  1.00  0.00    -0.500 OA
ATOM     22  H   UNL     1       1.885   0.589  -3.739  1.00  0.00     0.294 HD
ENDBRANCH   6  21
TORSDOF 5
ENDMDL
MODEL 2
REMARK VINA RESULT:    -5.098      2.042      3.539
REMARK INTER + INTRA:          -7.091
REMARK INTER:                  -6.272
REMARK INTRA:                  -0.818
REMARK UNBOUND:                -0.801
REMARK SMILES Cc1ccc(C(=O)c2cc(O)c(O)c([N+](=O)[O-])c2)cc1
REMARK SMILES IDX 8 1 18 2 9 3 14 4 10 5 12 6 6 7 7 8 5 9 4 10 19 11 3 12
REMARK SMILES IDX 20 13 2 14 1 15 15 16 17 17 16 18 11 19 13 21
REMARK H PARENT 11 20 13 22
ROOT
ATOM      1  C   UNL     1       2.382   3.336  -6.713  1.00  0.00     0.033 A 
ATOM      2  C   UNL     1       1.142   3.640  -6.201  1.00  0.00     0.102 A 
ATOM      3  C   UNL     1       3.254   2.473  -6.093  1.00  0.00     0.063 A 
ATOM      4  C   UNL     1       0.753   3.046  -5.000  1.00  0.00     0.315 A 
ATOM      5  C   UNL     1       2.866   1.880  -4.891  1.00  0.00     0.165 A 
ATOM      6  C   UNL     1       1.614   2.167  -4.345  1.00  0.00     0.237 A 
ENDROOT
BRANCH   1   7
ATOM      7  C   UNL     1       2.799   3.971  -7.999  1.00  0.00     0.193 C 
ATOM      8  O   UNL     1       3.382   3.253  -8.825  1.00  0.00    -0.289 OA
BRANCH   7   9
ATOM      9  C   UNL     1       2.544   5.372  -8.295  1.00  0.00     0.023 A 
ATOM     10  C   UNL     1       3.501   6.337  -7.979  1.00  0.00     0.012 A 
ATOM     11  C   UNL     1       1.344   5.751  -8.895  1.00  0.00     0.012 A 
ATOM     12  C   UNL     1       3.256   7.680  -8.264  1.00  0.00     0.004 A 
ATOM     13  C   UNL     1       1.099   7.094  -9.180  1.00  0.00     0.004 A 
ATOM     14  C   UNL     1       2.055   8.059  -8.865  1.00  0.00    -0.051 A 
ATOM     15  C   UNL     1       1.794   9.495  -9.167  1.00  0.00     0.044 C 
ENDBRANCH   7   9
ENDBRANCH   1   7
BRANCH   4  16
ATOM     16  N   UNL     1      -0.527   3.351  -4.458  1.00  0.00     0.066 N 
ATOM     17  O   UNL     1      -1.499   3.484  -5.239  1.00  0.00    -0.258 OA
ATOM     18  O   UNL     1      -0.645   3.476  -3.217  1.00  0.00    -0.258 OA
ENDBRANCH   4  16
BRANCH   5  19
ATOM     19  O   UNL     1       3.717   1.022  -4.263  1.00  0.00    -0.504 OA
ATOM     20  H   UNL     1       3.527   1.014  -3.310  1.00  0.00     0.293 HD
ENDBRANCH   5  19
BRANCH   6  21
ATOM     21  O   UNL     1       1.244   1.580  -3.170  1.00  0.00    -0.500 OA
ATOM     22  H   UNL     1       1.027   0.647  -3.325  1.00  0.00     0.294 HD
ENDBRANCH   6  21
TORSDOF 5
ENDMDL
MODEL 3
REMARK VINA RESULT:    -4.285      1.620      3.103
REMARK INTER + INTRA:          -6.088
REMARK INTER:                  -5.454
REMARK INTRA:                  -0.634
REMARK UNBOUND:                -0.801
REMARK SMILES Cc1ccc(C(=O)c2cc(O)c(O)c([N+](=O)[O-])c2)cc1
REMARK SMILES IDX 8 1 18 2 9 3 14 4 10 5 12 6 6 7 7 8 5 9 4 10 19 11 3 12
REMARK SMILES IDX 20 13 2 14 1 15 15 16 17 17 16 18 11 19 13 21
REMARK H PARENT 11 20 13 22
ROOT
ATOM      1  C   UNL     1       3.010   3.975  -5.145  1.00  0.00     0.033 A 
ATOM      2  C   UNL     1       1.712   4.219  -4.760  1.00  0.00     0.102 A 
ATOM      3  C   UNL     1       3.594   2.733  -5.057  1.00  0.00     0.063 A 
ATOM      4  C   UNL     1       0.955   3.160  -4.259  1.00  0.00     0.315 A 
ATOM      5  C   UNL     1       2.836   1.674  -4.555  1.00  0.00     0.165 A 
ATOM      6  C   UNL     1       1.516   1.888  -4.157  1.00  0.00     0.237 A 
ENDROOT
BRANCH   1   7
ATOM      7  C   UNL     1       3.821   5.109  -5.681  1.00  0.00     0.193 C 
ATOM      8  O   UNL     1       4.567   5.701  -4.886  1.00  0.00    -0.289 OA
BRANCH   7   9
ATOM      9  C   UNL     1       3.759   5.522  -7.074  1.00  0.00     0.023 A 
ATOM     10  C   UNL     1       4.889   6.056  -7.695  1.00  0.00     0.012 A 
ATOM     11  C   UNL     1       2.570   5.383  -7.790  1.00  0.00     0.012 A 
ATOM     12  C   UNL     1       4.829   6.451  -9.031  1.00  0.00     0.004 A 
ATOM     13  C   UNL     1       2.510   5.779  -9.127  1.00  0.00     0.004 A 
ATOM     14  C   UNL     1       3.639   6.313  -9.748  1.00  0.00    -0.051 A 
ATOM     15  C   UNL     1       3.576   6.738 -11.175  1.00  0.00     0.044 C 
ENDBRANCH   7   9
ENDBRANCH   1   7
BRANCH   4  16
ATOM     16  N   UNL     1      -0.388   3.397  -3.857  1.00  0.00     0.066 N 
ATOM     17  O   UNL     1      -1.224   3.761  -4.719  1.00  0.00    -0.258 OA
ATOM     18  O   UNL     1      -0.698   3.235  -2.653  1.00  0.00    -0.258 OA
ENDBRANCH   4  16
BRANCH   5  19
ATOM     19  O   UNL     1       3.398   0.436  -4.462  1.00  0.00    -0.504 OA
ATOM     20  H   UNL     1       4.355   0.500  -4.618  1.00  0.00     0.293 HD
ENDBRANCH   5  19
BRANCH   6  21
ATOM     21  O   UNL     1       0.786   0.844  -3.668  1.00  0.00    -0.500 OA
ATOM     22  H   UNL     1       1.003   0.036  -4.159  1.00  0.00     0.294 HD
ENDBRANCH   6  21
TORSDOF 5
ENDMDL
MODEL 4
REMARK VINA RESULT:    -4.247      1.806      2.091
REMARK INTER + INTRA:          -6.041
REMARK INTER:                  -5.421
REMARK INTRA:                  -0.620
REMARK UNBOUND:                -0.801
REMARK SMILES Cc1ccc(C(=O)c2cc(O)c(O)c([N+](=O)[O-])c2)cc1
REMARK SMILES IDX 8 1 18 2 9 3 14 4 10 5 12 6 6 7 7 8 5 9 4 10 19 11 3 12
REMARK SMILES IDX 20 13 2 14 1 15 15 16 17 17 16 18 11 19 13 21
REMARK H PARENT 11 20 13 22
ROOT
ATOM      1  C   UNL     1       0.889   3.252  -6.347  1.00  0.00     0.033 A 
ATOM      2  C   UNL     1       2.038   2.518  -6.168  1.00  0.00     0.102 A 
ATOM      3  C   UNL     1       0.001   3.509  -5.329  1.00  0.00     0.063 A 
ATOM      4  C   UNL     1       2.316   2.013  -4.899  1.00  0.00     0.315 A 
ATOM      5  C   UNL     1       0.279   3.002  -4.059  1.00  0.00     0.165 A 
ATOM      6  C   UNL     1       1.437   2.255  -3.843  1.00  0.00     0.237 A 
ENDROOT
BRANCH   1   7
ATOM      7  C   UNL     1       0.591   3.794  -7.707  1.00  0.00     0.193 C 
ATOM      8  O   UNL     1      -0.168   3.130  -8.430  1.00  0.00    -0.289 OA
BRANCH   7   9
ATOM      9  C   UNL     1       1.153   5.046  -8.188  1.00  0.00     0.023 A 
ATOM     10  C   UNL     1       0.413   5.857  -9.048  1.00  0.00     0.012 A 
ATOM     11  C   UNL     1       2.431   5.435  -7.790  1.00  0.00     0.012 A 
ATOM     12  C   UNL     1       0.952   7.058  -9.510  1.00  0.00     0.004 A 
ATOM     13  C   UNL     1       2.971   6.636  -8.251  1.00  0.00     0.004 A 
ATOM     14  C   UNL     1       2.231   7.448  -9.111  1.00  0.00    -0.051 A 
ATOM     15  C   UNL     1       2.808   8.731  -9.606  1.00  0.00     0.044 C 
ENDBRANCH   7   9
ENDBRANCH   1   7
BRANCH   4  16
ATOM     16  N   UNL     1       3.501   1.253  -4.699  1.00  0.00     0.066 N 
ATOM     17  O   UNL     1       3.399   0.038  -4.402  1.00  0.00    -0.258 OA
ATOM     18  O   UNL     1       4.612   1.818  -4.825  1.00  0.00    -0.258 OA
ENDBRANCH   4  16
BRANCH   5  19
ATOM     19  O   UNL     1      -0.589   3.247  -3.037  1.00  0.00    -0.504 OA
ATOM     20  H   UNL     1      -0.884   4.172  -3.075  1.00  0.00     0.293 HD
ENDBRANCH   5  19
BRANCH   6  21
ATOM     21  O   UNL     1       1.698   1.765  -2.597  1.00  0.00    -0.500 OA
ATOM     22  H   UNL     1       1.103   2.180  -1.953  1.00  0.00     0.294 HD
ENDBRANCH   6  21
TORSDOF 5
ENDMDL
MODEL 5
REMARK VINA RESULT:    -4.133     10.170     12.595
REMARK INTER + INTRA:          -5.901
REMARK INTER:                  -4.868
REMARK INTRA:                  -1.033
REMARK UNBOUND:                -0.801
REMARK SMILES Cc1ccc(C(=O)c2cc(O)c(O)c([N+](=O)[O-])c2)cc1
REMARK SMILES IDX 8 1 18 2 9 3 14 4 10 5 12 6 6 7 7 8 5 9 4 10 19 11 3 12
REMARK SMILES IDX 20 13 2 14 1 15 15 16 17 17 16 18 11 19 13 21
REMARK H PARENT 11 20 13 22
ROOT
ATOM      1  C   UNL     1       2.896  13.757 -13.940  1.00  0.00     0.033 A 
ATOM      2  C   UNL     1       3.125  12.402 -14.005  1.00  0.00     0.102 A 
ATOM      3  C   UNL     1       3.287  14.628 -14.928  1.00  0.00     0.063 A 
ATOM      4  C   UNL     1       3.782  11.890 -15.124  1.00  0.00     0.315 A 
ATOM      5  C   UNL     1       3.945  14.116 -16.047  1.00  0.00     0.165 A 
ATOM      6  C   UNL     1       4.192  12.746 -16.145  1.00  0.00     0.237 A 
ENDROOT
BRANCH   1   7
ATOM      7  C   UNL     1       2.193  14.305 -12.741  1.00  0.00     0.193 C 
ATOM      8  O   UNL     1       1.161  14.964 -12.939  1.00  0.00    -0.289 OA
BRANCH   7   9
ATOM      9  C   UNL     1       2.677  14.091 -11.387  1.00  0.00     0.023 A 
ATOM     10  C   UNL     1       3.889  14.651 -10.982  1.00  0.00     0.012 A 
ATOM     11  C   UNL     1       1.930  13.326 -10.492  1.00  0.00     0.012 A 
ATOM     12  C   UNL     1       4.353  14.445  -9.683  1.00  0.00     0.004 A 
ATOM     13  C   UNL     1       2.393  13.120  -9.192  1.00  0.00     0.004 A 
ATOM     14  C   UNL     1       3.605  13.680  -8.788  1.00  0.00    -0.051 A 
ATOM     15  C   UNL     1       4.103  13.459  -7.400  1.00  0.00     0.044 C 
ENDBRANCH   7   9
ENDBRANCH   1   7
BRANCH   4  16
ATOM     16  N   UNL     1       4.025  10.491 -15.206  1.00  0.00     0.066 N 
ATOM     17  O   UNL     1       4.076   9.950 -16.337  1.00  0.00    -0.258 OA
ATOM     18  O   UNL     1       4.182   9.840 -14.147  1.00  0.00    -0.258 OA
ENDBRANCH   4  16
BRANCH   5  19
ATOM     19  O   UNL     1       4.339  14.965 -17.037  1.00  0.00    -0.504 OA
ATOM     20  H   UNL     1       3.604  15.554 -17.273  1.00  0.00     0.293 HD
ENDBRANCH   5  19
BRANCH   6  21
ATOM     21  O   UNL     1       4.835  12.257 -17.245  1.00  0.00    -0.500 OA
ATOM     22  H   UNL     1       4.738  11.293 -17.278  1.00  0.00     0.294 HD
ENDBRANCH   6  21
TORSDOF 5
ENDMDL
MODEL 6
REMARK VINA RESULT:    -4.035      1.270      2.714
REMARK INTER + INTRA:          -5.780
REMARK INTER:                  -5.062
REMARK INTRA:                  -0.718
REMARK UNBOUND:                -0.801
REMARK SMILES Cc1ccc(C(=O)c2cc(O)c(O)c([N+](=O)[O-])c2)cc1
REMARK SMILES IDX 8 1 18 2 9 3 14 4 10 5 12 6 6 7 7 8 5 9 4 10 19 11 3 12
REMARK SMILES IDX 20 13 2 14 1 15 15 16 17 17 16 18 11 19 13 21
REMARK H PARENT 11 20 13 22
ROOT
ATOM      1  C   UNL     1       1.983   4.947  -6.100  1.00  0.00     0.033 A 
ATOM      2  C   UNL     1       0.754   4.687  -5.542  1.00  0.00     0.102 A 
ATOM      3  C   UNL     1       3.094   4.177  -5.852  1.00  0.00     0.063 A 
ATOM      4  C   UNL     1       0.628   3.592  -4.687  1.00  0.00     0.315 A 
ATOM      5  C   UNL     1       2.969   3.082  -4.996  1.00  0.00     0.165 A 
ATOM      6  C   UNL     1       1.735   2.789  -4.414  1.00  0.00     0.237 A 
ENDROOT
BRANCH   1   7
ATOM      7  C   UNL     1       2.118   6.120  -7.016  1.00  0.00     0.193 C 
ATOM      8  O   UNL     1       1.621   7.193  -6.643  1.00  0.00    -0.289 OA
BRANCH   7   9
ATOM      9  C   UNL     1       2.800   6.034  -8.297  1.00  0.00     0.023 A 
ATOM     10  C   UNL     1       2.074   5.765  -9.458  1.00  0.00     0.012 A 
ATOM     11  C   UNL     1       4.181   6.222  -8.367  1.00  0.00     0.012 A 
ATOM     12  C   UNL     1       2.729   5.683 -10.686  1.00  0.00     0.004 A 
ATOM     13  C   UNL     1       4.836   6.141  -9.596  1.00  0.00     0.004 A 
ATOM     14  C   UNL     1       4.110   5.871 -10.756  1.00  0.00    -0.051 A 
ATOM     15  C   UNL     1       4.809   5.782 -12.070  1.00  0.00     0.044 C 
ENDBRANCH   7   9
ENDBRANCH   1   7
BRANCH   4  16
ATOM     16  N   UNL     1      -0.637   3.310  -4.102  1.00  0.00     0.066 N 
ATOM     17  O   UNL     1      -1.611   3.062  -4.854  1.00  0.00    -0.258 OA
ATOM     18  O   UNL     1      -0.743   3.316  -2.854  1.00  0.00    -0.258 OA
ENDBRANCH   4  16
BRANCH   5  19
ATOM     19  O   UNL     1       4.059   2.306  -4.739  1.00  0.00    -0.504 OA
ATOM     20  H   UNL     1       4.012   1.969  -3.829  1.00  0.00     0.293 HD
ENDBRANCH   5  19
BRANCH   6  21
ATOM     21  O   UNL     1       1.625   1.715  -3.579  1.00  0.00    -0.500 OA
ATOM     22  H   UNL     1       0.737   1.332  -3.656  1.00  0.00     0.294 HD
ENDBRANCH   6  21
TORSDOF 5
ENDMDL
MODEL 7
REMARK VINA RESULT:    -4.030      1.950      2.524
REMARK INTER + INTRA:          -5.773
REMARK INTER:                  -5.054
REMARK INTRA:                  -0.719
REMARK UNBOUND:                -0.801
REMARK SMILES Cc1ccc(C(=O)c2cc(O)c(O)c([N+](=O)[O-])c2)cc1
REMARK SMILES IDX 8 1 18 2 9 3 14 4 10 5 12 6 6 7 7 8 5 9 4 10 19 11 3 12
REMARK SMILES IDX 20 13 2 14 1 15 15 16 17 17 16 18 11 19 13 21
REMARK H PARENT 11 20 13 22
ROOT
ATOM      1  C   UNL     1       2.351   3.774  -7.051  1.00  0.00     0.033 A 
ATOM      2  C   UNL     1       3.257   2.962  -6.408  1.00  0.00     0.102 A 
ATOM      3  C   UNL     1       1.058   3.941  -6.615  1.00  0.00     0.063 A 
ATOM      4  C   UNL     1       2.847   2.280  -5.264  1.00  0.00     0.315 A 
ATOM      5  C   UNL     1       0.647   3.257  -5.470  1.00  0.00     0.165 A 
ATOM      6  C   UNL     1       1.542   2.427  -4.794  1.00  0.00     0.237 A 
ENDROOT
BRANCH   1   7
ATOM      7  C   UNL     1       2.791   4.505  -8.278  1.00  0.00     0.193 C 
ATOM      8  O   UNL     1       3.417   3.859  -9.132  1.00  0.00    -0.289 OA
BRANCH   7   9
ATOM      9  C   UNL     1       2.510   5.916  -8.487  1.00  0.00     0.023 A 
ATOM     10  C   UNL     1       3.442   6.878  -8.099  1.00  0.00     0.012 A 
ATOM     11  C   UNL     1       1.308   6.308  -9.077  1.00  0.00     0.012 A 
ATOM     12  C   UNL     1       3.172   8.232  -8.300  1.00  0.00     0.004 A 
ATOM     13  C   UNL     1       1.038   7.662  -9.278  1.00  0.00     0.004 A 
ATOM     14  C   UNL     1       1.970   8.624  -8.890  1.00  0.00    -0.051 A 
ATOM     15  C   UNL     1       1.681  10.071  -9.103  1.00  0.00     0.044 C 
ENDBRANCH   7   9
ENDBRANCH   1   7
BRANCH   4  16
ATOM     16  N   UNL     1       3.772   1.438  -4.588  1.00  0.00     0.066 N 
ATOM     17  O   UNL     1       4.820   1.943  -4.118  1.00  0.00    -0.258 OA
ATOM     18  O   UNL     1       3.514   0.216  -4.481  1.00  0.00    -0.258 OA
ENDBRANCH   4  16
BRANCH   5  19
ATOM     19  O   UNL     1      -0.631   3.411  -5.023  1.00  0.00    -0.504 OA
ATOM     20  H   UNL     1      -1.159   2.636  -5.276  1.00  0.00     0.293 HD
ENDBRANCH   5  19
BRANCH   6  21
ATOM     21  O   UNL     1       1.128   1.764  -3.675  1.00  0.00    -0.500 OA
ATOM     22  H   UNL     1       1.857   1.230  -3.324  1.00  0.00     0.294 HD
ENDBRANCH   6  21
TORSDOF 5
ENDMDL
MODEL 8
REMARK VINA RESULT:    -4.018      3.656      6.574
REMARK INTER + INTRA:          -5.758
REMARK INTER:                  -4.819
REMARK INTRA:                  -0.939
REMARK UNBOUND:                -0.801
REMARK SMILES Cc1ccc(C(=O)c2cc(O)c(O)c([N+](=O)[O-])c2)cc1
REMARK SMILES IDX 8 1 18 2 9 3 14 4 10 5 12 6 6 7 7 8 5 9 4 10 19 11 3 12
REMARK SMILES IDX 20 13 2 14 1 15 15 16 17 17 16 18 11 19 13 21
REMARK H PARENT 11 20 13 22
ROOT
ATOM      1  C   UNL     1       1.931   6.127  -8.853  1.00  0.00     0.033 A 
ATOM      2  C   UNL     1       2.916   5.793  -9.753  1.00  0.00     0.102 A 
ATOM      3  C   UNL     1       1.449   7.407  -8.714  1.00  0.00     0.063 A 
ATOM      4  C   UNL     1       3.449   6.798 -10.561  1.00  0.00     0.315 A 
ATOM      5  C   UNL     1       1.983   8.412  -9.522  1.00  0.00     0.165 A 
ATOM      6  C   UNL     1       2.982   8.107 -10.446  1.00  0.00     0.237 A 
ENDROOT
BRANCH   1   7
ATOM      7  C   UNL     1       1.360   5.052  -7.987  1.00  0.00     0.193 C 
ATOM      8  O   UNL     1       0.131   4.887  -8.019  1.00  0.00    -0.289 OA
BRANCH   7   9
ATOM      9  C   UNL     1       2.189   4.217  -7.132  1.00  0.00     0.023 A 
ATOM     10  C   UNL     1       3.177   4.797  -6.337  1.00  0.00     0.012 A 
ATOM     11  C   UNL     1       1.995   2.836  -7.106  1.00  0.00     0.012 A 
ATOM     12  C   UNL     1       3.972   3.997  -5.517  1.00  0.00     0.004 A 
ATOM     13  C   UNL     1       2.789   2.034  -6.285  1.00  0.00     0.004 A 
ATOM     14  C   UNL     1       3.778   2.615  -5.491  1.00  0.00    -0.051 A 
ATOM     15  C   UNL     1       4.629   1.759  -4.615  1.00  0.00     0.044 C 
ENDBRANCH   7   9
ENDBRANCH   1   7
BRANCH   4  16
ATOM     16  N   UNL     1       4.467   6.468 -11.497  1.00  0.00     0.066 N 
ATOM     17  O   UNL     1       4.545   7.123 -12.565  1.00  0.00    -0.258 OA
ATOM     18  O   UNL     1       5.257   5.533 -11.228  1.00  0.00    -0.258 OA
ENDBRANCH   4  16
BRANCH   5  19
ATOM     19  O   UNL     1       1.517   9.687  -9.398  1.00  0.00    -0.504 OA
ATOM     20  H   UNL     1       1.197   9.830  -8.492  1.00  0.00     0.293 HD
ENDBRANCH   5  19
BRANCH   6  21
ATOM     21  O   UNL     1       3.496   9.098 -11.231  1.00  0.00    -0.500 OA
ATOM     22  H   UNL     1       2.911   9.249 -11.990  1.00  0.00     0.294 HD
ENDBRANCH   6  21
TORSDOF 5
ENDMDL
MODEL 9
REMARK VINA RESULT:    -2.359     10.586     12.635
REMARK INTER + INTRA:          -3.711
REMARK INTER:                  -2.701
REMARK INTRA:                  -1.011
REMARK UNBOUND:                -0.801
REMARK SMILES Cc1ccc(C(=O)c2cc(O)c(O)c([N+](=O)[O-])c2)cc1
REMARK SMILES IDX 8 1 18 2 9 3 14 4 10 5 12 6 6 7 7 8 5 9 4 10 19 11 3 12
REMARK SMILES IDX 20 13 2 14 1 15 15 16 17 17 16 18 11 19 13 21
REMARK H PARENT 11 20 13 22
ROOT
ATOM      1  C   UNL     1       5.195  11.464 -16.096  1.00  0.00     0.033 A 
ATOM      2  C   UNL     1       4.788  11.420 -14.782  1.00  0.00     0.102 A 
ATOM      3  C   UNL     1       5.085  12.592 -16.874  1.00  0.00     0.063 A 
ATOM      4  C   UNL     1       4.242  12.571 -14.215  1.00  0.00     0.315 A 
ATOM      5  C   UNL     1       4.538  13.743 -16.306  1.00  0.00     0.165 A 
ATOM      6  C   UNL     1       4.116  13.732 -14.976  1.00  0.00     0.237 A 
ENDROOT
BRANCH   1   7
ATOM      7  C   UNL     1       5.780  10.231 -16.704  1.00  0.00     0.193 C 
ATOM      8  O   UNL     1       6.892  10.336 -17.245  1.00  0.00    -0.289 OA
BRANCH   7   9
ATOM      9  C   UNL     1       5.097   8.948 -16.676  1.00  0.00     0.023 A 
ATOM     10  C   UNL     1       3.829   8.820 -17.245  1.00  0.00     0.012 A 
ATOM     11  C   UNL     1       5.709   7.844 -16.082  1.00  0.00     0.012 A 
ATOM     12  C   UNL     1       3.174   7.589 -17.219  1.00  0.00     0.004 A 
ATOM     13  C   UNL     1       5.054   6.612 -16.056  1.00  0.00     0.004 A 
ATOM     14  C   UNL     1       3.786   6.485 -16.624  1.00  0.00    -0.051 A 
ATOM     15  C   UNL     1       3.085   5.170 -16.595  1.00  0.00     0.044 C 
ENDBRANCH   7   9
ENDBRANCH   1   7
BRANCH   4  16
ATOM     16  N   UNL     1       3.817  12.541 -12.858  1.00  0.00     0.066 N 
ATOM     17  O   UNL     1       3.269  11.502 -12.417  1.00  0.00    -0.258 OA
ATOM     18  O   UNL     1       4.003  13.552 -12.142  1.00  0.00    -0.258 OA
ENDBRANCH   4  16
BRANCH   5  19
ATOM     19  O   UNL     1       4.422  14.870 -17.062  1.00  0.00    -0.504 OA
ATOM     20  H   UNL     1       4.607  15.650 -16.513  1.00  0.00     0.293 HD
ENDBRANCH   5  19
BRANCH   6  21
ATOM     21  O   UNL     1       3.583  14.864 -14.432  1.00  0.00    -0.500 OA
ATOM     22  H   UNL     1       3.333  14.697 -13.510  1.00  0.00     0.294 HD
ENDBRANCH   6  21
TORSDOF 5
ENDMDL
