MODEL 1
REMARK VINA RESULT:    -6.887      0.000      0.000
REMARK INTER + INTRA:          -8.677
REMARK INTER:                  -8.095
REMARK INTRA:                  -0.582
REMARK UNBOUND:                -0.582
REMARK SMILES O=C(O)c1cc(-c2ccc(F)cc2F)ccc1O
REMARK SMILES IDX 6 1 5 2 15 3 4 4 17 5 16 6 7 7 13 8 12 9 8 10 10 11 9 12
REMARK SMILES IDX 14 13 11 14 2 15 1 16 3 17 18 19
REMARK H PARENT 3 18 18 20
ROOT
ATOM      1  C   UNL     1       2.095   4.177  -6.323  1.00  0.00    -0.014 A 
ATOM      2  C   UNL     1       3.066   3.249  -5.951  1.00  0.00     0.028 A 
ATOM      3  C   UNL     1       0.860   4.192  -5.675  1.00  0.00     0.013 A 
ATOM      4  C   UNL     1       2.804   2.335  -4.930  1.00  0.00     0.102 A 
ATOM      5  C   UNL     1       1.569   2.350  -4.282  1.00  0.00     0.130 A 
ATOM      6  C   UNL     1       0.596   3.279  -4.655  1.00  0.00     0.048 A 
ENDROOT
BRANCH   1   7
ATOM      7  C   UNL     1       2.366   5.124  -7.383  1.00  0.00     0.018 A 
ATOM      8  C   UNL     1       3.576   5.819  -7.409  1.00  0.00     0.133 A 
ATOM      9  C   UNL     1       3.833   6.732  -8.432  1.00  0.00     0.079 A 
ATOM     10  C   UNL     1       1.416   5.341  -8.381  1.00  0.00     0.015 A 
ATOM     11  C   UNL     1       2.883   6.949  -9.429  1.00  0.00     0.126 A 
ATOM     12  C   UNL     1       1.674   6.253  -9.403  1.00  0.00     0.040 A 
ATOM     13  F   UNL     1       4.499   5.625  -6.456  1.00  0.00    -0.206 F 
ATOM     14  F   UNL     1       3.129   7.825 -10.412  1.00  0.00    -0.207 F 
ENDBRANCH   1   7
BRANCH   4  15
ATOM     15  C   UNL     1       3.832   1.374  -4.556  1.00  0.00     0.339 C 
ATOM     16  O   UNL     1       3.685   0.150  -4.519  1.00  0.00    -0.246 OA
BRANCH  15  17
ATOM     17  O   UNL     1       5.012   1.974  -4.240  1.00  0.00    -0.478 OA
ATOM     18  H   UNL     1       4.899   2.933  -4.070  1.00  0.00     0.297 HD
ENDBRANCH  15  17
ENDBRANCH   4  15
BRANCH   5  19
ATOM     19  O   UNL     1       1.293   1.466  -3.282  1.00  0.00    -0.507 OA
ATOM     20  H   UNL     1       0.565   0.885  -3.564  1.00  0.00     0.293 HD
ENDBRANCH   5  19
TORSDOF 4
ENDMDL
MODEL 2
REMARK VINA RESULT:    -6.883      1.123      1.605
REMARK INTER + INTRA:          -8.672
REMARK INTER:                  -8.084
REMARK INTRA:                  -0.588
REMARK UNBOUND:                -0.582
REMARK SMILES O=C(O)c1cc(-c2ccc(F)cc2F)ccc1O
REMARK SMILES IDX 6 1 5 2 15 3 4 4 17 5 16 6 7 7 13 8 12 9 8 10 10 11 9 12
REMARK SMILES IDX 14 13 11 14 2 15 1 16 3 17 18 19
REMARK H PARENT 3 18 18 20
ROOT
ATOM      1  C   UNL     1       2.061   4.169  -6.326  1.00  0.00    -0.014 A 
ATOM      2  C   UNL     1       3.040   3.248  -5.955  1.00  0.00     0.028 A 
ATOM      3  C   UNL     1       0.829   4.179  -5.672  1.00  0.00     0.013 A 
ATOM      4  C   UNL     1       2.787   2.335  -4.931  1.00  0.00     0.102 A 
ATOM      5  C   UNL     1       1.555   2.344  -4.277  1.00  0.00     0.130 A 
ATOM      6  C   UNL     1       0.575   3.267  -4.648  1.00  0.00     0.048 A 
ENDROOT
BRANCH   1   7
ATOM      7  C   UNL     1       2.322   5.116  -7.389  1.00  0.00     0.018 A 
ATOM      8  C   UNL     1       1.384   5.304  -8.405  1.00  0.00     0.133 A 
ATOM      9  C   UNL     1       1.640   6.217  -9.428  1.00  0.00     0.079 A 
ATOM     10  C   UNL     1       3.513   5.841  -7.396  1.00  0.00     0.015 A 
ATOM     11  C   UNL     1       2.832   6.942  -9.435  1.00  0.00     0.126 A 
ATOM     12  C   UNL     1       3.768   6.754  -8.418  1.00  0.00     0.040 A 
ATOM     13  F   UNL     1       0.236   4.613  -8.415  1.00  0.00    -0.206 F 
ATOM     14  F   UNL     1       3.078   7.818 -10.417  1.00  0.00    -0.207 F 
ENDBRANCH   1   7
BRANCH   4  15
ATOM     15  C   UNL     1       3.822   1.381  -4.559  1.00  0.00     0.339 C 
ATOM     16  O   UNL     1       3.684   0.156  -4.521  1.00  0.00    -0.246 OA
BRANCH  15  17
ATOM     17  O   UNL     1       4.999   1.989  -4.247  1.00  0.00    -0.478 OA
ATOM     18  H   UNL     1       4.930   2.965  -4.297  1.00  0.00     0.297 HD
ENDBRANCH  15  17
ENDBRANCH   4  15
BRANCH   5  19
ATOM     19  O   UNL     1       1.288   1.461  -3.274  1.00  0.00    -0.507 OA
ATOM     20  H   UNL     1       0.605   0.837  -3.574  1.00  0.00     0.293 HD
ENDBRANCH   5  19
TORSDOF 4
ENDMDL
MODEL 3
REMARK VINA RESULT:    -6.882      1.634      3.128
REMARK INTER + INTRA:          -8.671
REMARK INTER:                  -8.087
REMARK INTRA:                  -0.584
REMARK UNBOUND:                -0.582
REMARK SMILES O=C(O)c1cc(-c2ccc(F)cc2F)ccc1O
REMARK SMILES IDX 6 1 5 2 15 3 4 4 17 5 16 6 7 7 13 8 12 9 8 10 10 11 9 12
REMARK SMILES IDX 14 13 11 14 2 15 1 16 3 17 18 19
REMARK H PARENT 3 18 18 20
ROOT
ATOM      1  C   UNL     1       2.108   4.112  -6.390  1.00  0.00    -0.014 A 
ATOM      2  C   UNL     1       0.871   4.151  -5.747  1.00  0.00     0.028 A 
ATOM      3  C   UNL     1       3.061   3.166  -6.013  1.00  0.00     0.013 A 
ATOM      4  C   UNL     1       0.586   3.243  -4.727  1.00  0.00     0.102 A 
ATOM      5  C   UNL     1       1.540   2.297  -4.350  1.00  0.00     0.130 A 
ATOM      6  C   UNL     1       2.777   2.259  -4.994  1.00  0.00     0.048 A 
ENDROOT
BRANCH   1   7
ATOM      7  C   UNL     1       2.404   5.055  -7.448  1.00  0.00     0.018 A 
ATOM      8  C   UNL     1       1.469   5.292  -8.457  1.00  0.00     0.133 A 
ATOM      9  C   UNL     1       1.759   6.201  -9.475  1.00  0.00     0.079 A 
ATOM     10  C   UNL     1       3.626   5.727  -7.457  1.00  0.00     0.015 A 
ATOM     11  C   UNL     1       2.981   6.872  -9.484  1.00  0.00     0.126 A 
ATOM     12  C   UNL     1       3.914   6.635  -8.474  1.00  0.00     0.040 A 
ATOM     13  F   UNL     1       0.291   4.652  -8.465  1.00  0.00    -0.206 F 
ATOM     14  F   UNL     1       3.260   7.745 -10.461  1.00  0.00    -0.207 F 
ENDBRANCH   1   7
BRANCH   4  15
ATOM     15  C   UNL     1      -0.711   3.299  -4.068  1.00  0.00     0.339 C 
ATOM     16  O   UNL     1      -0.890   3.411  -2.853  1.00  0.00    -0.246 OA
BRANCH  15  17
ATOM     17  O   UNL     1      -1.744   3.215  -4.950  1.00  0.00    -0.478 OA
ATOM     18  H   UNL     1      -2.261   4.047  -4.987  1.00  0.00     0.297 HD
ENDBRANCH  15  17
ENDBRANCH   4  15
BRANCH   5  19
ATOM     19  O   UNL     1       1.281   1.401  -3.356  1.00  0.00    -0.507 OA
ATOM     20  H   UNL     1       1.451   0.502  -3.687  1.00  0.00     0.293 HD
ENDBRANCH   5  19
TORSDOF 4
ENDMDL
MODEL 4
REMARK VINA RESULT:    -6.879      1.205      2.689
REMARK INTER + INTRA:          -8.667
REMARK INTER:                  -8.085
REMARK INTRA:                  -0.582
REMARK UNBOUND:                -0.582
REMARK SMILES O=C(O)c1cc(-c2ccc(F)cc2F)ccc1O
REMARK SMILES IDX 6 1 5 2 15 3 4 4 17 5 16 6 7 7 13 8 12 9 8 10 10 11 9 12
REMARK SMILES IDX 14 13 11 14 2 15 1 16 3 17 18 19
REMARK H PARENT 3 18 18 20
ROOT
ATOM      1  C   UNL     1       2.136   4.115  -6.342  1.00  0.00    -0.014 A 
ATOM      2  C   UNL     1       0.891   4.150  -5.715  1.00  0.00     0.028 A 
ATOM      3  C   UNL     1       3.087   3.171  -5.953  1.00  0.00     0.013 A 
ATOM      4  C   UNL     1       0.596   3.242  -4.698  1.00  0.00     0.102 A 
ATOM      5  C   UNL     1       1.547   2.298  -4.309  1.00  0.00     0.130 A 
ATOM      6  C   UNL     1       2.793   2.263  -4.936  1.00  0.00     0.048 A 
ENDROOT
BRANCH   1   7
ATOM      7  C   UNL     1       2.444   5.057  -7.396  1.00  0.00     0.018 A 
ATOM      8  C   UNL     1       3.655   5.750  -7.385  1.00  0.00     0.133 A 
ATOM      9  C   UNL     1       3.947   6.658  -8.404  1.00  0.00     0.079 A 
ATOM     10  C   UNL     1       1.527   5.272  -8.425  1.00  0.00     0.015 A 
ATOM     11  C   UNL     1       3.030   6.873  -9.432  1.00  0.00     0.126 A 
ATOM     12  C   UNL     1       1.819   6.179  -9.442  1.00  0.00     0.040 A 
ATOM     13  F   UNL     1       4.546   5.558  -6.403  1.00  0.00    -0.206 F 
ATOM     14  F   UNL     1       3.309   7.744 -10.409  1.00  0.00    -0.207 F 
ENDBRANCH   1   7
BRANCH   4  15
ATOM     15  C   UNL     1      -0.710   3.295  -4.056  1.00  0.00     0.339 C 
ATOM     16  O   UNL     1      -0.905   3.409  -2.844  1.00  0.00    -0.246 OA
BRANCH  15  17
ATOM     17  O   UNL     1      -1.731   3.204  -4.951  1.00  0.00    -0.478 OA
ATOM     18  H   UNL     1      -1.860   4.042  -5.444  1.00  0.00     0.297 HD
ENDBRANCH  15  17
ENDBRANCH   4  15
BRANCH   5  19
ATOM     19  O   UNL     1       1.278   1.402  -3.318  1.00  0.00    -0.507 OA
ATOM     20  H   UNL     1       0.343   1.137  -3.374  1.00  0.00     0.293 HD
ENDBRANCH   5  19
TORSDOF 4
ENDMDL
MODEL 5
REMARK VINA RESULT:    -5.368      1.853      3.129
REMARK INTER + INTRA:          -6.892
REMARK INTER:                  -6.318
REMARK INTRA:                  -0.574
REMARK UNBOUND:                -0.582
REMARK SMILES O=C(O)c1cc(-c2ccc(F)cc2F)ccc1O
REMARK SMILES IDX 6 1 5 2 15 3 4 4 17 5 16 6 7 7 13 8 12 9 8 10 10 11 9 12
REMARK SMILES IDX 14 13 11 14 2 15 1 16 3 17 18 19
REMARK H PARENT 3 18 18 20
ROOT
ATOM      1  C   UNL     1       2.115   4.441  -6.982  1.00  0.00    -0.014 A 
ATOM      2  C   UNL     1       0.837   4.544  -6.435  1.00  0.00     0.028 A 
ATOM      3  C   UNL     1       3.002   3.475  -6.506  1.00  0.00     0.013 A 
ATOM      4  C   UNL     1       0.444   3.681  -5.412  1.00  0.00     0.102 A 
ATOM      5  C   UNL     1       1.330   2.714  -4.937  1.00  0.00     0.130 A 
ATOM      6  C   UNL     1       2.609   2.611  -5.484  1.00  0.00     0.048 A 
ENDROOT
BRANCH   1   7
ATOM      7  C   UNL     1       2.525   5.337  -8.042  1.00  0.00     0.018 A 
ATOM      8  C   UNL     1       2.181   6.689  -7.988  1.00  0.00     0.133 A 
ATOM      9  C   UNL     1       2.577   7.549  -9.013  1.00  0.00     0.079 A 
ATOM     10  C   UNL     1       3.265   4.847  -9.118  1.00  0.00     0.015 A 
ATOM     11  C   UNL     1       3.316   7.059 -10.089  1.00  0.00     0.126 A 
ATOM     12  C   UNL     1       3.661   5.708 -10.141  1.00  0.00     0.040 A 
ATOM     13  F   UNL     1       1.468   7.175  -6.963  1.00  0.00    -0.206 F 
ATOM     14  F   UNL     1       3.697   7.884 -11.072  1.00  0.00    -0.207 F 
ENDBRANCH   1   7
BRANCH   4  15
ATOM     15  C   UNL     1      -0.896   3.804  -4.855  1.00  0.00     0.339 C 
ATOM     16  O   UNL     1      -1.363   4.823  -4.339  1.00  0.00    -0.246 OA
BRANCH  15  17
ATOM     17  O   UNL     1      -1.610   2.651  -4.962  1.00  0.00    -0.478 OA
ATOM     18  H   UNL     1      -1.429   2.039  -4.217  1.00  0.00     0.297 HD
ENDBRANCH  15  17
ENDBRANCH   4  15
BRANCH   5  19
ATOM     19  O   UNL     1       0.965   1.861  -3.938  1.00  0.00    -0.507 OA
ATOM     20  H   UNL     1       1.295   0.969  -4.147  1.00  0.00     0.293 HD
ENDBRANCH   5  19
TORSDOF 4
ENDMDL
MODEL 6
REMARK VINA RESULT:    -5.120      4.195      6.457
REMARK INTER + INTRA:          -6.599
REMARK INTER:                  -5.524
REMARK INTRA:                  -1.075
REMARK UNBOUND:                -0.582
REMARK SMILES O=C(O)c1cc(-c2ccc(F)cc2F)ccc1O
REMARK SMILES IDX 6 1 5 2 15 3 4 4 17 5 16 6 7 7 13 8 12 9 8 10 10 11 9 12
REMARK SMILES IDX 14 13 11 14 2 15 1 16 3 17 18 19
REMARK H PARENT 3 18 18 20
ROOT
ATOM      1  C   UNL     1       2.492   5.887  -8.327  1.00  0.00    -0.014 A 
ATOM      2  C   UNL     1       3.334   5.448  -9.348  1.00  0.00     0.028 A 
ATOM      3  C   UNL     1       2.013   7.197  -8.332  1.00  0.00     0.013 A 
ATOM      4  C   UNL     1       3.697   6.319 -10.376  1.00  0.00     0.102 A 
ATOM      5  C   UNL     1       3.218   7.629 -10.381  1.00  0.00     0.130 A 
ATOM      6  C   UNL     1       2.376   8.068  -9.358  1.00  0.00     0.048 A 
ENDROOT
BRANCH   1   7
ATOM      7  C   UNL     1       2.116   4.984  -7.260  1.00  0.00     0.018 A 
ATOM      8  C   UNL     1       0.915   4.276  -7.333  1.00  0.00     0.133 A 
ATOM      9  C   UNL     1       0.556   3.407  -6.302  1.00  0.00     0.079 A 
ATOM     10  C   UNL     1       2.956   4.822  -6.159  1.00  0.00     0.015 A 
ATOM     11  C   UNL     1       1.396   3.245  -5.201  1.00  0.00     0.126 A 
ATOM     12  C   UNL     1       2.597   3.953  -5.130  1.00  0.00     0.040 A 
ATOM     13  F   UNL     1       0.095   4.423  -8.383  1.00  0.00    -0.206 F 
ATOM     14  F   UNL     1       1.052   2.411  -4.211  1.00  0.00    -0.207 F 
ENDBRANCH   1   7
BRANCH   4  15
ATOM     15  C   UNL     1       4.577   5.842 -11.433  1.00  0.00     0.339 C 
ATOM     16  O   UNL     1       5.127   6.552 -12.279  1.00  0.00    -0.246 OA
BRANCH  15  17
ATOM     17  O   UNL     1       4.743   4.492 -11.399  1.00  0.00    -0.478 OA
ATOM     18  H   UNL     1       5.107   4.148 -12.242  1.00  0.00     0.297 HD
ENDBRANCH  15  17
ENDBRANCH   4  15
BRANCH   5  19
ATOM     19  O   UNL     1       3.561   8.496 -11.375  1.00  0.00    -0.507 OA
ATOM     20  H   UNL     1       2.836   8.539 -12.023  1.00  0.00     0.293 HD
ENDBRANCH   5  19
TORSDOF 4
ENDMDL
MODEL 7
REMARK VINA RESULT:    -5.115      4.594      6.878
REMARK INTER + INTRA:          -6.594
REMARK INTER:                  -5.508
REMARK INTRA:                  -1.086
REMARK UNBOUND:                -0.582
REMARK SMILES O=C(O)c1cc(-c2ccc(F)cc2F)ccc1O
REMARK SMILES IDX 6 1 5 2 15 3 4 4 17 5 16 6 7 7 13 8 12 9 8 10 10 11 9 12
REMARK SMILES IDX 14 13 11 14 2 15 1 16 3 17 18 19
REMARK H PARENT 3 18 18 20
ROOT
ATOM      1  C   UNL     1       2.326   5.819  -8.164  1.00  0.00    -0.014 A 
ATOM      2  C   UNL     1       1.948   7.154  -8.299  1.00  0.00     0.028 A 
ATOM      3  C   UNL     1       3.171   5.234  -9.107  1.00  0.00     0.013 A 
ATOM      4  C   UNL     1       2.415   7.905  -9.378  1.00  0.00     0.102 A 
ATOM      5  C   UNL     1       3.260   7.320 -10.321  1.00  0.00     0.130 A 
ATOM      6  C   UNL     1       3.638   5.984 -10.186  1.00  0.00     0.048 A 
ENDROOT
BRANCH   1   7
ATOM      7  C   UNL     1       1.841   5.039  -7.046  1.00  0.00     0.018 A 
ATOM      8  C   UNL     1       0.665   4.298  -7.167  1.00  0.00     0.133 A 
ATOM      9  C   UNL     1       0.200   3.547  -6.086  1.00  0.00     0.079 A 
ATOM     10  C   UNL     1       2.552   5.028  -5.846  1.00  0.00     0.015 A 
ATOM     11  C   UNL     1       0.911   3.537  -4.887  1.00  0.00     0.126 A 
ATOM     12  C   UNL     1       2.088   4.277  -4.767  1.00  0.00     0.040 A 
ATOM     13  F   UNL     1      -0.032   4.299  -8.312  1.00  0.00    -0.206 F 
ATOM     14  F   UNL     1       0.466   2.817  -3.849  1.00  0.00    -0.207 F 
ENDBRANCH   1   7
BRANCH   4  15
ATOM     15  C   UNL     1       2.010   9.299  -9.502  1.00  0.00     0.339 C 
ATOM     16  O   UNL     1       2.353  10.065 -10.405  1.00  0.00    -0.246 OA
BRANCH  15  17
ATOM     17  O   UNL     1       1.186   9.690  -8.491  1.00  0.00    -0.478 OA
ATOM     18  H   UNL     1       1.098  10.666  -8.450  1.00  0.00     0.297 HD
ENDBRANCH  15  17
ENDBRANCH   4  15
BRANCH   5  19
ATOM     19  O   UNL     1       3.728   8.037 -11.382  1.00  0.00    -0.507 OA
ATOM     20  H   UNL     1       4.369   8.695 -11.063  1.00  0.00     0.293 HD
ENDBRANCH   5  19
TORSDOF 4
ENDMDL
MODEL 8
REMARK VINA RESULT:    -4.165     10.662     12.521
REMARK INTER + INTRA:          -5.477
REMARK INTER:                  -4.465
REMARK INTRA:                  -1.011
REMARK UNBOUND:                -0.582
REMARK SMILES O=C(O)c1cc(-c2ccc(F)cc2F)ccc1O
REMARK SMILES IDX 6 1 5 2 15 3 4 4 17 5 16 6 7 7 13 8 12 9 8 10 10 11 9 12
REMARK SMILES IDX 14 13 11 14 2 15 1 16 3 17 18 19
REMARK H PARENT 3 18 18 20
ROOT
ATOM      1  C   UNL     1       3.776  13.801 -13.097  1.00  0.00    -0.014 A 
ATOM      2  C   UNL     1       3.883  12.562 -13.727  1.00  0.00     0.028 A 
ATOM      3  C   UNL     1       3.680  14.965 -13.860  1.00  0.00     0.013 A 
ATOM      4  C   UNL     1       3.894  12.485 -15.120  1.00  0.00     0.102 A 
ATOM      5  C   UNL     1       3.799  13.649 -15.883  1.00  0.00     0.130 A 
ATOM      6  C   UNL     1       3.692  14.889 -15.253  1.00  0.00     0.048 A 
ENDROOT
BRANCH   1   7
ATOM      7  C   UNL     1       3.765  13.881 -11.653  1.00  0.00     0.018 A 
ATOM      8  C   UNL     1       4.904  14.303 -10.966  1.00  0.00     0.133 A 
ATOM      9  C   UNL     1       4.890  14.378  -9.573  1.00  0.00     0.079 A 
ATOM     10  C   UNL     1       2.612  13.537 -10.947  1.00  0.00     0.015 A 
ATOM     11  C   UNL     1       3.737  14.034  -8.867  1.00  0.00     0.126 A 
ATOM     12  C   UNL     1       2.598  13.614  -9.555  1.00  0.00     0.040 A 
ATOM     13  F   UNL     1       6.021  14.634 -11.629  1.00  0.00    -0.206 F 
ATOM     14  F   UNL     1       3.722  14.106  -7.530  1.00  0.00    -0.207 F 
ENDBRANCH   1   7
BRANCH   4  15
ATOM     15  C   UNL     1       4.007  11.181 -15.758  1.00  0.00     0.339 C 
ATOM     16  O   UNL     1       4.581  10.956 -16.827  1.00  0.00    -0.246 OA
BRANCH  15  17
ATOM     17  O   UNL     1       3.399  10.198 -15.040  1.00  0.00    -0.478 OA
ATOM     18  H   UNL     1       2.788   9.666 -15.593  1.00  0.00     0.297 HD
ENDBRANCH  15  17
ENDBRANCH   4  15
BRANCH   5  19
ATOM     19  O   UNL     1       3.808  13.596 -17.245  1.00  0.00    -0.507 OA
ATOM     20  H   UNL     1       3.023  13.107 -17.549  1.00  0.00     0.293 HD
ENDBRANCH   5  19
TORSDOF 4
ENDMDL
MODEL 9
REMARK VINA RESULT:    -4.113      9.893     12.086
REMARK INTER + INTRA:          -5.416
REMARK INTER:                  -4.397
REMARK INTRA:                  -1.019
REMARK UNBOUND:                -0.582
REMARK SMILES O=C(O)c1cc(-c2ccc(F)cc2F)ccc1O
REMARK SMILES IDX 6 1 5 2 15 3 4 4 17 5 16 6 7 7 13 8 12 9 8 10 10 11 9 12
REMARK SMILES IDX 14 13 11 14 2 15 1 16 3 17 18 19
REMARK H PARENT 3 18 18 20
ROOT
ATOM      1  C   UNL     1       2.704  13.810 -12.034  1.00  0.00    -0.014 A 
ATOM      2  C   UNL     1       3.155  12.872 -12.962  1.00  0.00     0.028 A 
ATOM      3  C   UNL     1       1.878  14.856 -12.446  1.00  0.00     0.013 A 
ATOM      4  C   UNL     1       2.783  12.980 -14.302  1.00  0.00     0.102 A 
ATOM      5  C   UNL     1       1.957  14.026 -14.714  1.00  0.00     0.130 A 
ATOM      6  C   UNL     1       1.505  14.965 -13.785  1.00  0.00     0.048 A 
ENDROOT
BRANCH   1   7
ATOM      7  C   UNL     1       3.091  13.699 -10.645  1.00  0.00     0.018 A 
ATOM      8  C   UNL     1       2.364  12.882  -9.778  1.00  0.00     0.133 A 
ATOM      9  C   UNL     1       2.741  12.779  -8.438  1.00  0.00     0.079 A 
ATOM     10  C   UNL     1       4.195  14.409 -10.173  1.00  0.00     0.015 A 
ATOM     11  C   UNL     1       3.844  13.490  -7.967  1.00  0.00     0.126 A 
ATOM     12  C   UNL     1       4.571  14.305  -8.835  1.00  0.00     0.040 A 
ATOM     13  F   UNL     1       1.299  12.195 -10.214  1.00  0.00    -0.206 F 
ATOM     14  F   UNL     1       4.206  13.391  -6.681  1.00  0.00    -0.207 F 
ENDBRANCH   1   7
BRANCH   4  15
ATOM     15  C   UNL     1       3.265  11.990 -15.255  1.00  0.00     0.339 C 
ATOM     16  O   UNL     1       3.704  12.238 -16.381  1.00  0.00    -0.246 OA
BRANCH  15  17
ATOM     17  O   UNL     1       3.184  10.721 -14.770  1.00  0.00    -0.478 OA
ATOM     18  H   UNL     1       3.780  10.585 -14.004  1.00  0.00     0.297 HD
ENDBRANCH  15  17
ENDBRANCH   4  15
BRANCH   5  19
ATOM     19  O   UNL     1       1.581  14.150 -16.018  1.00  0.00    -0.507 OA
ATOM     20  H   UNL     1       2.048  14.906 -16.413  1.00  0.00     0.293 HD
ENDBRANCH   5  19
TORSDOF 4
ENDMDL
