MODEL 1
REMARK VINA RESULT:    -6.904      0.000      0.000
REMARK INTER + INTRA:          -8.670
REMARK INTER:                  -8.115
REMARK INTRA:                  -0.554
REMARK UNBOUND:                -0.554
REMARK SMILES O=C(O)c1cc(-c2ccc(F)cc2F)ccc1O
REMARK SMILES IDX 6 1 5 2 15 3 4 4 17 5 16 6 7 7 13 8 12 9 8 10 10 11 9 12
REMARK SMILES IDX 14 13 11 14 2 15 1 16 3 17 18 19
REMARK H PARENT 3 18 18 20
ROOT
ATOM      1  C   UNL     1       6.904   5.317   1.716  1.00  0.00    -0.014 A 
ATOM      2  C   UNL     1       6.166   5.690   0.594  1.00  0.00     0.028 A 
ATOM      3  C   UNL     1       6.721   4.056   2.284  1.00  0.00     0.013 A 
ATOM      4  C   UNL     1       5.243   4.803   0.039  1.00  0.00     0.102 A 
ATOM      5  C   UNL     1       5.060   3.542   0.607  1.00  0.00     0.130 A 
ATOM      6  C   UNL     1       5.799   3.169   1.730  1.00  0.00     0.048 A 
ENDROOT
BRANCH   1   7
ATOM      7  C   UNL     1       7.860   6.237   2.293  1.00  0.00     0.018 A 
ATOM      8  C   UNL     1       8.706   6.978   1.467  1.00  0.00     0.133 A 
ATOM      9  C   UNL     1       9.627   7.864   2.028  1.00  0.00     0.079 A 
ATOM     10  C   UNL     1       7.934   6.383   3.678  1.00  0.00     0.015 A 
ATOM     11  C   UNL     1       9.701   8.009   3.413  1.00  0.00     0.126 A 
ATOM     12  C   UNL     1       8.855   7.269   4.238  1.00  0.00     0.040 A 
ATOM     13  F   UNL     1       8.649   6.847   0.134  1.00  0.00    -0.206 F 
ATOM     14  F   UNL     1      10.585   8.859   3.951  1.00  0.00    -0.207 F 
ENDBRANCH   1   7
BRANCH   4  15
ATOM     15  C   UNL     1       4.482   5.212  -1.133  1.00  0.00     0.339 C 
ATOM     16  O   UNL     1       3.254   5.166  -1.239  1.00  0.00    -0.246 OA
BRANCH  15  17
ATOM     17  O   UNL     1       5.281   5.666  -2.137  1.00  0.00    -0.478 OA
ATOM     18  H   UNL     1       5.234   5.090  -2.929  1.00  0.00     0.297 HD
ENDBRANCH  15  17
ENDBRANCH   4  15
BRANCH   5  19
ATOM     19  O   UNL     1       4.164   2.660   0.080  1.00  0.00    -0.507 OA
ATOM     20  H   UNL     1       4.269   2.641  -0.887  1.00  0.00     0.293 HD
ENDBRANCH   5  19
TORSDOF 4
ENDMDL
MODEL 2
REMARK VINA RESULT:    -6.889      1.120      1.604
REMARK INTER + INTRA:          -8.652
REMARK INTER:                  -8.105
REMARK INTRA:                  -0.547
REMARK UNBOUND:                -0.554
REMARK SMILES O=C(O)c1cc(-c2ccc(F)cc2F)ccc1O
REMARK SMILES IDX 6 1 5 2 15 3 4 4 17 5 16 6 7 7 13 8 12 9 8 10 10 11 9 12
REMARK SMILES IDX 14 13 11 14 2 15 1 16 3 17 18 19
REMARK H PARENT 3 18 18 20
ROOT
ATOM      1  C   UNL     1       6.876   5.324   1.736  1.00  0.00    -0.014 A 
ATOM      2  C   UNL     1       6.146   5.696   0.608  1.00  0.00     0.028 A 
ATOM      3  C   UNL     1       6.690   4.064   2.304  1.00  0.00     0.013 A 
ATOM      4  C   UNL     1       5.229   4.807   0.047  1.00  0.00     0.102 A 
ATOM      5  C   UNL     1       5.042   3.547   0.614  1.00  0.00     0.130 A 
ATOM      6  C   UNL     1       5.774   3.175   1.743  1.00  0.00     0.048 A 
ENDROOT
BRANCH   1   7
ATOM      7  C   UNL     1       7.827   6.246   2.320  1.00  0.00     0.018 A 
ATOM      8  C   UNL     1       7.885   6.409   3.705  1.00  0.00     0.133 A 
ATOM      9  C   UNL     1       8.803   7.299   4.263  1.00  0.00     0.079 A 
ATOM     10  C   UNL     1       8.686   6.972   1.495  1.00  0.00     0.015 A 
ATOM     11  C   UNL     1       9.662   8.025   3.439  1.00  0.00     0.126 A 
ATOM     12  C   UNL     1       9.604   7.861   2.055  1.00  0.00     0.040 A 
ATOM     13  F   UNL     1       7.065   5.721   4.511  1.00  0.00    -0.206 F 
ATOM     14  F   UNL     1      10.543   8.879   3.974  1.00  0.00    -0.207 F 
ENDBRANCH   1   7
BRANCH   4  15
ATOM     15  C   UNL     1       4.476   5.215  -1.132  1.00  0.00     0.339 C 
ATOM     16  O   UNL     1       3.249   5.171  -1.245  1.00  0.00    -0.246 OA
BRANCH  15  17
ATOM     17  O   UNL     1       5.282   5.665  -2.132  1.00  0.00    -0.478 OA
ATOM     18  H   UNL     1       6.084   6.107  -1.782  1.00  0.00     0.297 HD
ENDBRANCH  15  17
ENDBRANCH   4  15
BRANCH   5  19
ATOM     19  O   UNL     1       4.152   2.664   0.080  1.00  0.00    -0.507 OA
ATOM     20  H   UNL     1       3.614   2.284   0.797  1.00  0.00     0.293 HD
ENDBRANCH   5  19
TORSDOF 4
ENDMDL
MODEL 3
REMARK VINA RESULT:    -6.876      1.238      2.716
REMARK INTER + INTRA:          -8.636
REMARK INTER:                  -8.093
REMARK INTRA:                  -0.544
REMARK UNBOUND:                -0.554
REMARK SMILES O=C(O)c1cc(-c2ccc(F)cc2F)ccc1O
REMARK SMILES IDX 6 1 5 2 15 3 4 4 17 5 16 6 7 7 13 8 12 9 8 10 10 11 9 12
REMARK SMILES IDX 14 13 11 14 2 15 1 16 3 17 18 19
REMARK H PARENT 3 18 18 20
ROOT
ATOM      1  C   UNL     1       6.865   5.347   1.725  1.00  0.00    -0.014 A 
ATOM      2  C   UNL     1       6.708   4.103   2.333  1.00  0.00     0.028 A 
ATOM      3  C   UNL     1       6.100   5.678   0.606  1.00  0.00     0.013 A 
ATOM      4  C   UNL     1       5.787   3.187   1.824  1.00  0.00     0.102 A 
ATOM      5  C   UNL     1       5.023   3.517   0.705  1.00  0.00     0.130 A 
ATOM      6  C   UNL     1       5.179   4.763   0.095  1.00  0.00     0.048 A 
ENDROOT
BRANCH   1   7
ATOM      7  C   UNL     1       7.821   6.297   2.252  1.00  0.00     0.018 A 
ATOM      8  C   UNL     1       8.652   7.009   1.386  1.00  0.00     0.133 A 
ATOM      9  C   UNL     1       9.573   7.923   1.899  1.00  0.00     0.079 A 
ATOM     10  C   UNL     1       7.909   6.501   3.629  1.00  0.00     0.015 A 
ATOM     11  C   UNL     1       9.662   8.126   3.276  1.00  0.00     0.126 A 
ATOM     12  C   UNL     1       8.829   7.415   4.141  1.00  0.00     0.040 A 
ATOM     13  F   UNL     1       8.582   6.823   0.061  1.00  0.00    -0.206 F 
ATOM     14  F   UNL     1      10.545   9.004   3.769  1.00  0.00    -0.207 F 
ENDBRANCH   1   7
BRANCH   4  15
ATOM     15  C   UNL     1       5.639   1.893   2.474  1.00  0.00     0.339 C 
ATOM     16  O   UNL     1       5.712   0.798   1.910  1.00  0.00    -0.246 OA
BRANCH  15  17
ATOM     17  O   UNL     1       5.404   2.008   3.810  1.00  0.00    -0.478 OA
ATOM     18  H   UNL     1       4.451   2.133   4.003  1.00  0.00     0.297 HD
ENDBRANCH  15  17
ENDBRANCH   4  15
BRANCH   5  19
ATOM     19  O   UNL     1       4.117   2.637   0.191  1.00  0.00    -0.507 OA
ATOM     20  H   UNL     1       3.676   2.173   0.923  1.00  0.00     0.293 HD
ENDBRANCH   5  19
TORSDOF 4
ENDMDL
MODEL 4
REMARK VINA RESULT:    -6.870      1.728      3.221
REMARK INTER + INTRA:          -8.629
REMARK INTER:                  -8.001
REMARK INTRA:                  -0.629
REMARK UNBOUND:                -0.554
REMARK SMILES O=C(O)c1cc(-c2ccc(F)cc2F)ccc1O
REMARK SMILES IDX 6 1 5 2 15 3 4 4 17 5 16 6 7 7 13 8 12 9 8 10 10 11 9 12
REMARK SMILES IDX 14 13 11 14 2 15 1 16 3 17 18 19
REMARK H PARENT 3 18 18 20
ROOT
ATOM      1  C   UNL     1       6.885   5.352   1.891  1.00  0.00    -0.014 A 
ATOM      2  C   UNL     1       6.791   4.101   2.499  1.00  0.00     0.028 A 
ATOM      3  C   UNL     1       6.067   5.663   0.804  1.00  0.00     0.013 A 
ATOM      4  C   UNL     1       5.878   3.160   2.022  1.00  0.00     0.102 A 
ATOM      5  C   UNL     1       5.060   3.471   0.936  1.00  0.00     0.130 A 
ATOM      6  C   UNL     1       5.155   4.723   0.327  1.00  0.00     0.048 A 
ENDROOT
BRANCH   1   7
ATOM      7  C   UNL     1       7.833   6.328   2.384  1.00  0.00     0.018 A 
ATOM      8  C   UNL     1       7.954   6.555   3.756  1.00  0.00     0.133 A 
ATOM      9  C   UNL     1       8.868   7.497   4.227  1.00  0.00     0.079 A 
ATOM     10  C   UNL     1       8.626   7.041   1.486  1.00  0.00     0.015 A 
ATOM     11  C   UNL     1       9.661   8.211   3.329  1.00  0.00     0.126 A 
ATOM     12  C   UNL     1       9.540   7.983   1.958  1.00  0.00     0.040 A 
ATOM     13  F   UNL     1       7.197   5.880   4.632  1.00  0.00    -0.206 F 
ATOM     14  F   UNL     1      10.539   9.116   3.781  1.00  0.00    -0.207 F 
ENDBRANCH   1   7
BRANCH   4  15
ATOM     15  C   UNL     1       5.795   1.859   2.671  1.00  0.00     0.339 C 
ATOM     16  O   UNL     1       5.731   0.773   2.089  1.00  0.00    -0.246 OA
BRANCH  15  17
ATOM     17  O   UNL     1       5.795   1.957   4.029  1.00  0.00    -0.478 OA
ATOM     18  H   UNL     1       5.004   1.535   4.425  1.00  0.00     0.297 HD
ENDBRANCH  15  17
ENDBRANCH   4  15
BRANCH   5  19
ATOM     19  O   UNL     1       4.161   2.566   0.454  1.00  0.00    -0.507 OA
ATOM     20  H   UNL     1       4.507   1.668   0.598  1.00  0.00     0.293 HD
ENDBRANCH   5  19
TORSDOF 4
ENDMDL
MODEL 5
REMARK VINA RESULT:    -5.555      1.064      1.109
REMARK INTER + INTRA:          -7.083
REMARK INTER:                  -6.559
REMARK INTRA:                  -0.524
REMARK UNBOUND:                -0.554
REMARK SMILES O=C(O)c1cc(-c2ccc(F)cc2F)ccc1O
REMARK SMILES IDX 6 1 5 2 15 3 4 4 17 5 16 6 7 7 13 8 12 9 8 10 10 11 9 12
REMARK SMILES IDX 14 13 11 14 2 15 1 16 3 17 18 19
REMARK H PARENT 3 18 18 20
ROOT
ATOM      1  C   UNL     1       7.216   5.633   1.862  1.00  0.00    -0.014 A 
ATOM      2  C   UNL     1       6.560   6.041   0.702  1.00  0.00     0.028 A 
ATOM      3  C   UNL     1       6.913   4.399   2.438  1.00  0.00     0.013 A 
ATOM      4  C   UNL     1       5.598   5.217   0.117  1.00  0.00     0.102 A 
ATOM      5  C   UNL     1       5.294   3.983   0.693  1.00  0.00     0.130 A 
ATOM      6  C   UNL     1       5.952   3.574   1.854  1.00  0.00     0.048 A 
ENDROOT
BRANCH   1   7
ATOM      7  C   UNL     1       8.213   6.488   2.470  1.00  0.00     0.018 A 
ATOM      8  C   UNL     1       8.042   7.873   2.468  1.00  0.00     0.133 A 
ATOM      9  C   UNL     1       9.006   8.694   3.055  1.00  0.00     0.079 A 
ATOM     10  C   UNL     1       9.344   5.925   3.060  1.00  0.00     0.015 A 
ATOM     11  C   UNL     1      10.137   8.131   3.644  1.00  0.00     0.126 A 
ATOM     12  C   UNL     1      10.306   6.746   3.647  1.00  0.00     0.040 A 
ATOM     13  F   UNL     1       6.962   8.430   1.903  1.00  0.00    -0.206 F 
ATOM     14  F   UNL     1      11.062   8.918   4.208  1.00  0.00    -0.207 F 
ENDBRANCH   1   7
BRANCH   4  15
ATOM     15  C   UNL     1       4.924   5.662  -1.095  1.00  0.00     0.339 C 
ATOM     16  O   UNL     1       3.737   5.463  -1.365  1.00  0.00    -0.246 OA
BRANCH  15  17
ATOM     17  O   UNL     1       5.754   6.343  -1.930  1.00  0.00    -0.478 OA
ATOM     18  H   UNL     1       5.388   6.406  -2.837  1.00  0.00     0.297 HD
ENDBRANCH  15  17
ENDBRANCH   4  15
BRANCH   5  19
ATOM     19  O   UNL     1       4.359   3.162   0.136  1.00  0.00    -0.507 OA
ATOM     20  H   UNL     1       4.172   2.432   0.751  1.00  0.00     0.293 HD
ENDBRANCH   5  19
TORSDOF 4
ENDMDL
MODEL 6
REMARK VINA RESULT:    -5.337      4.326      6.651
REMARK INTER + INTRA:          -6.828
REMARK INTER:                  -5.760
REMARK INTRA:                  -1.067
REMARK UNBOUND:                -0.554
REMARK SMILES O=C(O)c1cc(-c2ccc(F)cc2F)ccc1O
REMARK SMILES IDX 6 1 5 2 15 3 4 4 17 5 16 6 7 7 13 8 12 9 8 10 10 11 9 12
REMARK SMILES IDX 14 13 11 14 2 15 1 16 3 17 18 19
REMARK H PARENT 3 18 18 20
ROOT
ATOM      1  C   UNL     1       8.600   7.112   2.548  1.00  0.00    -0.014 A 
ATOM      2  C   UNL     1       9.711   6.541   3.166  1.00  0.00     0.028 A 
ATOM      3  C   UNL     1       8.433   8.497   2.555  1.00  0.00     0.013 A 
ATOM      4  C   UNL     1      10.656   7.354   3.793  1.00  0.00     0.102 A 
ATOM      5  C   UNL     1      10.488   8.739   3.801  1.00  0.00     0.130 A 
ATOM      6  C   UNL     1       9.376   9.310   3.181  1.00  0.00     0.048 A 
ENDROOT
BRANCH   1   7
ATOM      7  C   UNL     1       7.619   6.269   1.898  1.00  0.00     0.018 A 
ATOM      8  C   UNL     1       7.672   6.067   0.519  1.00  0.00     0.133 A 
ATOM      9  C   UNL     1       6.725   5.254  -0.103  1.00  0.00     0.079 A 
ATOM     10  C   UNL     1       6.620   5.657   2.655  1.00  0.00     0.015 A 
ATOM     11  C   UNL     1       5.725   4.643   0.653  1.00  0.00     0.126 A 
ATOM     12  C   UNL     1       5.674   4.844   2.033  1.00  0.00     0.040 A 
ATOM     13  F   UNL     1       8.625   6.650  -0.224  1.00  0.00    -0.206 F 
ATOM     14  F   UNL     1       4.815   3.862   0.057  1.00  0.00    -0.207 F 
ENDBRANCH   1   7
BRANCH   4  15
ATOM     15  C   UNL     1      11.810   6.738   4.434  1.00  0.00     0.339 C 
ATOM     16  O   UNL     1      12.602   7.314   5.183  1.00  0.00    -0.246 OA
BRANCH  15  17
ATOM     17  O   UNL     1      11.935   5.420   4.118  1.00  0.00    -0.478 OA
ATOM     18  H   UNL     1      12.146   4.875   4.905  1.00  0.00     0.297 HD
ENDBRANCH  15  17
ENDBRANCH   4  15
BRANCH   5  19
ATOM     19  O   UNL     1      11.400   9.551   4.407  1.00  0.00    -0.507 OA
ATOM     20  H   UNL     1      11.290   9.487   5.372  1.00  0.00     0.293 HD
ENDBRANCH   5  19
TORSDOF 4
ENDMDL
MODEL 7
REMARK VINA RESULT:    -5.305      4.024      6.268
REMARK INTER + INTRA:          -6.790
REMARK INTER:                  -5.725
REMARK INTRA:                  -1.065
REMARK UNBOUND:                -0.554
REMARK SMILES O=C(O)c1cc(-c2ccc(F)cc2F)ccc1O
REMARK SMILES IDX 6 1 5 2 15 3 4 4 17 5 16 6 7 7 13 8 12 9 8 10 10 11 9 12
REMARK SMILES IDX 14 13 11 14 2 15 1 16 3 17 18 19
REMARK H PARENT 3 18 18 20
ROOT
ATOM      1  C   UNL     1       8.568   7.076   2.637  1.00  0.00    -0.014 A 
ATOM      2  C   UNL     1       8.325   8.449   2.626  1.00  0.00     0.028 A 
ATOM      3  C   UNL     1       9.732   6.579   3.224  1.00  0.00     0.013 A 
ATOM      4  C   UNL     1       9.246   9.326   3.200  1.00  0.00     0.102 A 
ATOM      5  C   UNL     1      10.409   8.829   3.787  1.00  0.00     0.130 A 
ATOM      6  C   UNL     1      10.652   7.454   3.799  1.00  0.00     0.048 A 
ENDROOT
BRANCH   1   7
ATOM      7  C   UNL     1       7.614   6.166   2.040  1.00  0.00     0.018 A 
ATOM      8  C   UNL     1       7.624   5.947   0.662  1.00  0.00     0.133 A 
ATOM      9  C   UNL     1       6.702   5.070   0.090  1.00  0.00     0.079 A 
ATOM     10  C   UNL     1       6.686   5.507   2.845  1.00  0.00     0.015 A 
ATOM     11  C   UNL     1       5.773   4.411   0.895  1.00  0.00     0.126 A 
ATOM     12  C   UNL     1       5.766   4.630   2.273  1.00  0.00     0.040 A 
ATOM     13  F   UNL     1       8.508   6.575  -0.126  1.00  0.00    -0.206 F 
ATOM     14  F   UNL     1       4.889   3.569   0.347  1.00  0.00    -0.207 F 
ENDBRANCH   1   7
BRANCH   4  15
ATOM     15  C   UNL     1       8.973  10.756   3.178  1.00  0.00     0.339 C 
ATOM     16  O   UNL     1       9.772  11.640   3.498  1.00  0.00    -0.246 OA
BRANCH  15  17
ATOM     17  O   UNL     1       7.711  11.037   2.754  1.00  0.00    -0.478 OA
ATOM     18  H   UNL     1       7.594  10.839   1.802  1.00  0.00     0.297 HD
ENDBRANCH  15  17
ENDBRANCH   4  15
BRANCH   5  19
ATOM     19  O   UNL     1      11.321   9.668   4.355  1.00  0.00    -0.507 OA
ATOM     20  H   UNL     1      12.085   9.148   4.658  1.00  0.00     0.293 HD
ENDBRANCH   5  19
TORSDOF 4
ENDMDL
MODEL 8
REMARK VINA RESULT:    -4.071      5.909      8.368
REMARK INTER + INTRA:          -5.339
REMARK INTER:                  -4.825
REMARK INTRA:                  -0.514
REMARK UNBOUND:                -0.554
REMARK SMILES O=C(O)c1cc(-c2ccc(F)cc2F)ccc1O
REMARK SMILES IDX 6 1 5 2 15 3 4 4 17 5 16 6 7 7 13 8 12 9 8 10 10 11 9 12
REMARK SMILES IDX 14 13 11 14 2 15 1 16 3 17 18 19
REMARK H PARENT 3 18 18 20
ROOT
ATOM      1  C   UNL     1       9.246  10.734   3.571  1.00  0.00    -0.014 A 
ATOM      2  C   UNL     1      10.496  11.348   3.635  1.00  0.00     0.028 A 
ATOM      3  C   UNL     1       8.089  11.481   3.794  1.00  0.00     0.013 A 
ATOM      4  C   UNL     1      10.590  12.710   3.923  1.00  0.00     0.102 A 
ATOM      5  C   UNL     1       9.433  13.457   4.146  1.00  0.00     0.130 A 
ATOM      6  C   UNL     1       8.182  12.842   4.081  1.00  0.00     0.048 A 
ENDROOT
BRANCH   1   7
ATOM      7  C   UNL     1       9.147   9.321   3.275  1.00  0.00     0.018 A 
ATOM      8  C   UNL     1      10.146   8.444   3.700  1.00  0.00     0.133 A 
ATOM      9  C   UNL     1      10.047   7.083   3.412  1.00  0.00     0.079 A 
ATOM     10  C   UNL     1       8.051   8.836   2.563  1.00  0.00     0.015 A 
ATOM     11  C   UNL     1       8.951   6.598   2.699  1.00  0.00     0.126 A 
ATOM     12  C   UNL     1       7.952   7.475   2.275  1.00  0.00     0.040 A 
ATOM     13  F   UNL     1      11.208   8.895   4.383  1.00  0.00    -0.206 F 
ATOM     14  F   UNL     1       8.856   5.292   2.422  1.00  0.00    -0.207 F 
ENDBRANCH   1   7
BRANCH   4  15
ATOM     15  C   UNL     1      11.905  13.333   3.985  1.00  0.00     0.339 C 
ATOM     16  O   UNL     1      12.136  14.472   4.398  1.00  0.00    -0.246 OA
BRANCH  15  17
ATOM     17  O   UNL     1      12.890  12.512   3.529  1.00  0.00    -0.478 OA
ATOM     18  H   UNL     1      13.345  12.047   4.263  1.00  0.00     0.297 HD
ENDBRANCH  15  17
ENDBRANCH   4  15
BRANCH   5  19
ATOM     19  O   UNL     1       9.504  14.789   4.427  1.00  0.00    -0.507 OA
ATOM     20  H   UNL     1      10.229  14.942   5.057  1.00  0.00     0.293 HD
ENDBRANCH   5  19
TORSDOF 4
ENDMDL
