MODEL 1
REMARK VINA RESULT:    -5.335      0.000      0.000
REMARK INTER + INTRA:          -7.421
REMARK INTER:                  -6.583
REMARK INTRA:                  -0.838
REMARK UNBOUND:                -0.838
REMARK SMILES Cc1ccc(C(=O)c2cc(O)c(O)c([N+](=O)[O-])c2)cc1
REMARK SMILES IDX 8 1 18 2 9 3 14 4 10 5 12 6 6 7 7 8 5 9 4 10 19 11 3 12
REMARK SMILES IDX 20 13 2 14 1 15 15 16 17 17 16 18 11 19 13 21
REMARK H PARENT 11 20 13 22
ROOT
ATOM      1  C   UNL     1       7.492   1.813  -3.188  1.00  0.00     0.033 A 
ATOM      2  C   UNL     1       6.835   2.951  -3.594  1.00  0.00     0.102 A 
ATOM      3  C   UNL     1       6.878   0.810  -2.477  1.00  0.00     0.063 A 
ATOM      4  C   UNL     1       5.485   3.092  -3.271  1.00  0.00     0.315 A 
ATOM      5  C   UNL     1       5.529   0.951  -2.153  1.00  0.00     0.165 A 
ATOM      6  C   UNL     1       4.832   2.093  -2.551  1.00  0.00     0.237 A 
ENDROOT
BRANCH   1   7
ATOM      7  C   UNL     1       8.938   1.661  -3.533  1.00  0.00     0.193 C 
ATOM      8  O   UNL     1       9.311   0.553  -3.946  1.00  0.00    -0.289 OA
BRANCH   7   9
ATOM      9  C   UNL     1       9.890   2.753  -3.401  1.00  0.00     0.023 A 
ATOM     10  C   UNL     1      10.588   2.929  -2.206  1.00  0.00     0.012 A 
ATOM     11  C   UNL     1      10.106   3.623  -4.469  1.00  0.00     0.012 A 
ATOM     12  C   UNL     1      11.501   3.975  -2.080  1.00  0.00     0.004 A 
ATOM     13  C   UNL     1      11.019   4.671  -4.343  1.00  0.00     0.004 A 
ATOM     14  C   UNL     1      11.717   4.847  -3.148  1.00  0.00    -0.051 A 
ATOM     15  C   UNL     1      12.692   5.966  -3.012  1.00  0.00     0.044 C 
ENDBRANCH   7   9
ENDBRANCH   1   7
BRANCH   4  16
ATOM     16  N   UNL     1       4.792   4.263  -3.685  1.00  0.00     0.066 N 
ATOM     17  O   UNL     1       5.041   4.747  -4.815  1.00  0.00    -0.258 OA
ATOM     18  O   UNL     1       3.951   4.775  -2.909  1.00  0.00    -0.258 OA
ENDBRANCH   4  16
BRANCH   5  19
ATOM     19  O   UNL     1       4.903  -0.034  -1.449  1.00  0.00    -0.504 OA
ATOM     20  H   UNL     1       3.948  -0.001  -1.622  1.00  0.00     0.293 HD
ENDBRANCH   5  19
BRANCH   6  21
ATOM     21  O   UNL     1       3.512   2.219  -2.229  1.00  0.00    -0.500 OA
ATOM     22  H   UNL     1       3.117   1.340  -2.119  1.00  0.00     0.294 HD
ENDBRANCH   6  21
TORSDOF 5
ENDMDL
MODEL 2
REMARK VINA RESULT:    -5.321      2.067      3.549
REMARK INTER + INTRA:          -7.403
REMARK INTER:                  -6.577
REMARK INTRA:                  -0.825
REMARK UNBOUND:                -0.838
REMARK SMILES Cc1ccc(C(=O)c2cc(O)c(O)c([N+](=O)[O-])c2)cc1
REMARK SMILES IDX 8 1 18 2 9 3 14 4 10 5 12 6 6 7 7 8 5 9 4 10 19 11 3 12
REMARK SMILES IDX 20 13 2 14 1 15 15 16 17 17 16 18 11 19 13 21
REMARK H PARENT 11 20 13 22
ROOT
ATOM      1  C   UNL     1       7.346   3.565  -2.432  1.00  0.00     0.033 A 
ATOM      2  C   UNL     1       7.180   2.304  -1.908  1.00  0.00     0.102 A 
ATOM      3  C   UNL     1       6.299   4.322  -2.902  1.00  0.00     0.063 A 
ATOM      4  C   UNL     1       5.892   1.770  -1.850  1.00  0.00     0.315 A 
ATOM      5  C   UNL     1       5.011   3.788  -2.845  1.00  0.00     0.165 A 
ATOM      6  C   UNL     1       4.808   2.512  -2.318  1.00  0.00     0.237 A 
ENDROOT
BRANCH   1   7
ATOM      7  C   UNL     1       8.725   4.136  -2.494  1.00  0.00     0.193 C 
ATOM      8  O   UNL     1       8.865   5.323  -2.160  1.00  0.00    -0.289 OA
BRANCH   7   9
ATOM      9  C   UNL     1       9.874   3.356  -2.925  1.00  0.00     0.023 A 
ATOM     10  C   UNL     1      10.248   3.349  -4.269  1.00  0.00     0.012 A 
ATOM     11  C   UNL     1      10.602   2.615  -1.994  1.00  0.00     0.012 A 
ATOM     12  C   UNL     1      11.351   2.601  -4.681  1.00  0.00     0.004 A 
ATOM     13  C   UNL     1      11.705   1.866  -2.407  1.00  0.00     0.004 A 
ATOM     14  C   UNL     1      12.079   1.859  -3.751  1.00  0.00    -0.051 A 
ATOM     15  C   UNL     1      13.256   1.058  -4.192  1.00  0.00     0.044 C 
ENDBRANCH   7   9
ENDBRANCH   1   7
BRANCH   4  16
ATOM     16  N   UNL     1       5.705   0.468  -1.311  1.00  0.00     0.066 N 
ATOM     17  O   UNL     1       6.384   0.121  -0.314  1.00  0.00    -0.258 OA
ATOM     18  O   UNL     1       4.866  -0.295  -1.846  1.00  0.00    -0.258 OA
ENDBRANCH   4  16
BRANCH   5  19
ATOM     19  O   UNL     1       3.961   4.524  -3.305  1.00  0.00    -0.504 OA
ATOM     20  H   UNL     1       3.648   5.118  -2.603  1.00  0.00     0.293 HD
ENDBRANCH   5  19
BRANCH   6  21
ATOM     21  O   UNL     1       3.544   2.000  -2.267  1.00  0.00    -0.500 OA
ATOM     22  H   UNL     1       3.513   1.269  -1.630  1.00  0.00     0.294 HD
ENDBRANCH   6  21
TORSDOF 5
ENDMDL
MODEL 3
REMARK VINA RESULT:    -4.765      1.682      3.142
REMARK INTER + INTRA:          -6.717
REMARK INTER:                  -6.199
REMARK INTRA:                  -0.518
REMARK UNBOUND:                -0.838
REMARK SMILES Cc1ccc(C(=O)c2cc(O)c(O)c([N+](=O)[O-])c2)cc1
REMARK SMILES IDX 8 1 18 2 9 3 14 4 10 5 12 6 6 7 7 8 5 9 4 10 19 11 3 12
REMARK SMILES IDX 20 13 2 14 1 15 15 16 17 17 16 18 11 19 13 21
REMARK H PARENT 11 20 13 22
ROOT
ATOM      1  C   UNL     1       6.585   2.926  -4.002  1.00  0.00     0.033 A 
ATOM      2  C   UNL     1       6.512   1.724  -3.338  1.00  0.00     0.102 A 
ATOM      3  C   UNL     1       5.650   3.922  -3.848  1.00  0.00     0.063 A 
ATOM      4  C   UNL     1       5.443   1.506  -2.469  1.00  0.00     0.315 A 
ATOM      5  C   UNL     1       4.580   3.704  -2.980  1.00  0.00     0.165 A 
ATOM      6  C   UNL     1       4.477   2.496  -2.289  1.00  0.00     0.237 A 
ENDROOT
BRANCH   1   7
ATOM      7  C   UNL     1       7.730   3.160  -4.933  1.00  0.00     0.193 C 
ATOM      8  O   UNL     1       7.492   3.120  -6.150  1.00  0.00    -0.289 OA
BRANCH   7   9
ATOM      9  C   UNL     1       9.079   3.425  -4.459  1.00  0.00     0.023 A 
ATOM     10  C   UNL     1       9.956   4.181  -5.238  1.00  0.00     0.012 A 
ATOM     11  C   UNL     1       9.496   2.924  -3.227  1.00  0.00     0.012 A 
ATOM     12  C   UNL     1      11.249   4.436  -4.782  1.00  0.00     0.004 A 
ATOM     13  C   UNL     1      10.791   3.178  -2.771  1.00  0.00     0.004 A 
ATOM     14  C   UNL     1      11.667   3.935  -3.549  1.00  0.00    -0.051 A 
ATOM     15  C   UNL     1      13.050   4.206  -3.064  1.00  0.00     0.044 C 
ENDBRANCH   7   9
ENDBRANCH   1   7
BRANCH   4  16
ATOM     16  N   UNL     1       5.355   0.268  -1.774  1.00  0.00     0.066 N 
ATOM     17  O   UNL     1       4.339  -0.448  -1.940  1.00  0.00    -0.258 OA
ATOM     18  O   UNL     1       6.294  -0.070  -1.017  1.00  0.00    -0.258 OA
ENDBRANCH   4  16
BRANCH   5  19
ATOM     19  O   UNL     1       3.644   4.680  -2.814  1.00  0.00    -0.504 OA
ATOM     20  H   UNL     1       4.044   5.440  -2.360  1.00  0.00     0.293 HD
ENDBRANCH   5  19
BRANCH   6  21
ATOM     21  O   UNL     1       3.427   2.295  -1.442  1.00  0.00    -0.500 OA
ATOM     22  H   UNL     1       3.619   1.546  -0.855  1.00  0.00     0.294 HD
ENDBRANCH   6  21
TORSDOF 5
ENDMDL
MODEL 4
REMARK VINA RESULT:    -4.734      1.738      1.883
REMARK INTER + INTRA:          -6.679
REMARK INTER:                  -6.163
REMARK INTRA:                  -0.515
REMARK UNBOUND:                -0.838
REMARK SMILES Cc1ccc(C(=O)c2cc(O)c(O)c([N+](=O)[O-])c2)cc1
REMARK SMILES IDX 8 1 18 2 9 3 14 4 10 5 12 6 6 7 7 8 5 9 4 10 19 11 3 12
REMARK SMILES IDX 20 13 2 14 1 15 15 16 17 17 16 18 11 19 13 21
REMARK H PARENT 11 20 13 22
ROOT
ATOM      1  C   UNL     1       7.048   2.252  -1.444  1.00  0.00     0.033 A 
ATOM      2  C   UNL     1       6.451   3.354  -2.010  1.00  0.00     0.102 A 
ATOM      3  C   UNL     1       6.436   1.023  -1.378  1.00  0.00     0.063 A 
ATOM      4  C   UNL     1       5.168   3.219  -2.541  1.00  0.00     0.315 A 
ATOM      5  C   UNL     1       5.153   0.887  -1.909  1.00  0.00     0.165 A 
ATOM      6  C   UNL     1       4.519   1.986  -2.491  1.00  0.00     0.237 A 
ENDROOT
BRANCH   1   7
ATOM      7  C   UNL     1       8.421   2.397  -0.874  1.00  0.00     0.193 C 
ATOM      8  O   UNL     1       8.526   2.413   0.362  1.00  0.00    -0.289 OA
BRANCH   7   9
ATOM      9  C   UNL     1       9.604   2.515  -1.711  1.00  0.00     0.023 A 
ATOM     10  C   UNL     1      10.841   2.075  -1.238  1.00  0.00     0.012 A 
ATOM     11  C   UNL     1       9.503   3.067  -2.988  1.00  0.00     0.012 A 
ATOM     12  C   UNL     1      11.975   2.189  -2.041  1.00  0.00     0.004 A 
ATOM     13  C   UNL     1      10.638   3.181  -3.792  1.00  0.00     0.004 A 
ATOM     14  C   UNL     1      11.874   2.741  -3.319  1.00  0.00    -0.051 A 
ATOM     15  C   UNL     1      13.087   2.863  -4.176  1.00  0.00     0.044 C 
ENDBRANCH   7   9
ENDBRANCH   1   7
BRANCH   4  16
ATOM     16  N   UNL     1       4.539   4.349  -3.130  1.00  0.00     0.066 N 
ATOM     17  O   UNL     1       5.089   4.908  -4.110  1.00  0.00    -0.258 OA
ATOM     18  O   UNL     1       3.452   4.754  -2.655  1.00  0.00    -0.258 OA
ENDBRANCH   4  16
BRANCH   5  19
ATOM     19  O   UNL     1       4.531  -0.324  -1.853  1.00  0.00    -0.504 OA
ATOM     20  H   UNL     1       3.612  -0.205  -1.561  1.00  0.00     0.293 HD
ENDBRANCH   5  19
BRANCH   6  21
ATOM     21  O   UNL     1       3.264   1.840  -3.008  1.00  0.00    -0.500 OA
ATOM     22  H   UNL     1       2.663   2.475  -2.588  1.00  0.00     0.294 HD
ENDBRANCH   6  21
TORSDOF 5
ENDMDL
MODEL 5
REMARK VINA RESULT:    -4.706      3.987      7.161
REMARK INTER + INTRA:          -6.644
REMARK INTER:                  -5.903
REMARK INTRA:                  -0.741
REMARK UNBOUND:                -0.838
REMARK SMILES Cc1ccc(C(=O)c2cc(O)c(O)c([N+](=O)[O-])c2)cc1
REMARK SMILES IDX 8 1 18 2 9 3 14 4 10 5 12 6 6 7 7 8 5 9 4 10 19 11 3 12
REMARK SMILES IDX 20 13 2 14 1 15 15 16 17 17 16 18 11 19 13 21
REMARK H PARENT 11 20 13 22
ROOT
ATOM      1  C   UNL     1      11.222   3.135  -3.320  1.00  0.00     0.033 A 
ATOM      2  C   UNL     1      12.233   4.067  -3.372  1.00  0.00     0.102 A 
ATOM      3  C   UNL     1      11.422   1.802  -3.588  1.00  0.00     0.063 A 
ATOM      4  C   UNL     1      13.517   3.639  -3.712  1.00  0.00     0.315 A 
ATOM      5  C   UNL     1      12.705   1.374  -3.928  1.00  0.00     0.165 A 
ATOM      6  C   UNL     1      13.754   2.293  -3.989  1.00  0.00     0.237 A 
ENDROOT
BRANCH   1   7
ATOM      7  C   UNL     1       9.847   3.592  -2.956  1.00  0.00     0.193 C 
ATOM      8  O   UNL     1       9.600   4.802  -3.077  1.00  0.00    -0.289 OA
BRANCH   7   9
ATOM      9  C   UNL     1       8.822   2.678  -2.479  1.00  0.00     0.023 A 
ATOM     10  C   UNL     1       8.652   2.475  -1.109  1.00  0.00     0.012 A 
ATOM     11  C   UNL     1       8.009   2.004  -3.390  1.00  0.00     0.012 A 
ATOM     12  C   UNL     1       7.668   1.599  -0.652  1.00  0.00     0.004 A 
ATOM     13  C   UNL     1       7.025   1.127  -2.933  1.00  0.00     0.004 A 
ATOM     14  C   UNL     1       6.854   0.924  -1.563  1.00  0.00    -0.051 A 
ATOM     15  C   UNL     1       5.804  -0.013  -1.073  1.00  0.00     0.044 C 
ENDBRANCH   7   9
ENDBRANCH   1   7
BRANCH   4  16
ATOM     16  N   UNL     1      14.572   4.591  -3.770  1.00  0.00     0.066 N 
ATOM     17  O   UNL     1      14.480   5.640  -3.088  1.00  0.00    -0.258 OA
ATOM     18  O   UNL     1      15.563   4.353  -4.499  1.00  0.00    -0.258 OA
ENDBRANCH   4  16
BRANCH   5  19
ATOM     19  O   UNL     1      12.922   0.056  -4.196  1.00  0.00    -0.504 OA
ATOM     20  H   UNL     1      12.199  -0.475  -3.823  1.00  0.00     0.293 HD
ENDBRANCH   5  19
BRANCH   6  21
ATOM     21  O   UNL     1      15.005   1.863  -4.322  1.00  0.00    -0.500 OA
ATOM     22  H   UNL     1      15.288   2.289  -5.147  1.00  0.00     0.294 HD
ENDBRANCH   6  21
TORSDOF 5
ENDMDL
MODEL 6
REMARK VINA RESULT:    -4.659      4.254      7.391
REMARK INTER + INTRA:          -6.586
REMARK INTER:                  -5.797
REMARK INTRA:                  -0.789
REMARK UNBOUND:                -0.838
REMARK SMILES Cc1ccc(C(=O)c2cc(O)c(O)c([N+](=O)[O-])c2)cc1
REMARK SMILES IDX 8 1 18 2 9 3 14 4 10 5 12 6 6 7 7 8 5 9 4 10 19 11 3 12
REMARK SMILES IDX 20 13 2 14 1 15 15 16 17 17 16 18 11 19 13 21
REMARK H PARENT 11 20 13 22
ROOT
ATOM      1  C   UNL     1      11.569   3.741  -3.315  1.00  0.00     0.033 A 
ATOM      2  C   UNL     1      12.881   3.505  -3.654  1.00  0.00     0.102 A 
ATOM      3  C   UNL     1      11.099   4.986  -2.973  1.00  0.00     0.063 A 
ATOM      4  C   UNL     1      13.774   4.577  -3.652  1.00  0.00     0.315 A 
ATOM      5  C   UNL     1      11.991   6.059  -2.971  1.00  0.00     0.165 A 
ATOM      6  C   UNL     1      13.329   5.854  -3.311  1.00  0.00     0.237 A 
ENDROOT
BRANCH   1   7
ATOM      7  C   UNL     1      10.613   2.592  -3.316  1.00  0.00     0.193 C 
ATOM      8  O   UNL     1      11.090   1.455  -3.453  1.00  0.00    -0.289 OA
BRANCH   7   9
ATOM      9  C   UNL     1       9.178   2.772  -3.166  1.00  0.00     0.023 A 
ATOM     10  C   UNL     1       8.393   3.082  -4.277  1.00  0.00     0.012 A 
ATOM     11  C   UNL     1       8.586   2.635  -1.910  1.00  0.00     0.012 A 
ATOM     12  C   UNL     1       7.017   3.254  -4.132  1.00  0.00     0.004 A 
ATOM     13  C   UNL     1       7.209   2.807  -1.765  1.00  0.00     0.004 A 
ATOM     14  C   UNL     1       6.424   3.117  -2.876  1.00  0.00    -0.051 A 
ATOM     15  C   UNL     1       4.953   3.303  -2.721  1.00  0.00     0.044 C 
ENDBRANCH   7   9
ENDBRANCH   1   7
BRANCH   4  16
ATOM     16  N   UNL     1      15.133   4.348  -4.001  1.00  0.00     0.066 N 
ATOM     17  O   UNL     1      15.695   5.138  -4.798  1.00  0.00    -0.258 OA
ATOM     18  O   UNL     1      15.730   3.366  -3.501  1.00  0.00    -0.258 OA
ENDBRANCH   4  16
BRANCH   5  19
ATOM     19  O   UNL     1      11.543   7.301  -2.636  1.00  0.00    -0.504 OA
ATOM     20  H   UNL     1      11.616   7.425  -1.675  1.00  0.00     0.293 HD
ENDBRANCH   5  19
BRANCH   6  21
ATOM     21  O   UNL     1      14.193   6.911  -3.306  1.00  0.00    -0.500 OA
ATOM     22  H   UNL     1      14.190   7.329  -2.430  1.00  0.00     0.294 HD
ENDBRANCH   6  21
TORSDOF 5
ENDMDL
MODEL 7
REMARK VINA RESULT:    -4.636      3.686      7.203
REMARK INTER + INTRA:          -6.558
REMARK INTER:                  -5.611
REMARK INTRA:                  -0.947
REMARK UNBOUND:                -0.838
REMARK SMILES Cc1ccc(C(=O)c2cc(O)c(O)c([N+](=O)[O-])c2)cc1
REMARK SMILES IDX 8 1 18 2 9 3 14 4 10 5 12 6 6 7 7 8 5 9 4 10 19 11 3 12
REMARK SMILES IDX 20 13 2 14 1 15 15 16 17 17 16 18 11 19 13 21
REMARK H PARENT 11 20 13 22
ROOT
ATOM      1  C   UNL     1      10.640   3.663  -3.999  1.00  0.00     0.033 A 
ATOM      2  C   UNL     1      11.542   2.628  -4.080  1.00  0.00     0.102 A 
ATOM      3  C   UNL     1      11.008   4.950  -3.686  1.00  0.00     0.063 A 
ATOM      4  C   UNL     1      12.888   2.896  -3.836  1.00  0.00     0.315 A 
ATOM      5  C   UNL     1      12.355   5.218  -3.441  1.00  0.00     0.165 A 
ATOM      6  C   UNL     1      13.296   4.190  -3.517  1.00  0.00     0.237 A 
ENDROOT
BRANCH   1   7
ATOM      7  C   UNL     1       9.197   3.377  -4.260  1.00  0.00     0.193 C 
ATOM      8  O   UNL     1       8.697   3.862  -5.286  1.00  0.00    -0.289 OA
BRANCH   7   9
ATOM      9  C   UNL     1       8.389   2.564  -3.365  1.00  0.00     0.023 A 
ATOM     10  C   UNL     1       7.464   1.659  -3.888  1.00  0.00     0.012 A 
ATOM     11  C   UNL     1       8.538   2.688  -1.984  1.00  0.00     0.012 A 
ATOM     12  C   UNL     1       6.690   0.880  -3.029  1.00  0.00     0.004 A 
ATOM     13  C   UNL     1       7.764   1.909  -1.124  1.00  0.00     0.004 A 
ATOM     14  C   UNL     1       6.839   1.004  -1.647  1.00  0.00    -0.051 A 
ATOM     15  C   UNL     1       6.010   0.172  -0.729  1.00  0.00     0.044 C 
ENDBRANCH   7   9
ENDBRANCH   1   7
BRANCH   4  16
ATOM     16  N   UNL     1      13.832   1.835  -3.918  1.00  0.00     0.066 N 
ATOM     17  O   UNL     1      14.972   2.073  -4.384  1.00  0.00    -0.258 OA
ATOM     18  O   UNL     1      13.498   0.695  -3.520  1.00  0.00    -0.258 OA
ENDBRANCH   4  16
BRANCH   5  19
ATOM     19  O   UNL     1      12.738   6.488  -3.131  1.00  0.00    -0.504 OA
ATOM     20  H   UNL     1      12.587   6.652  -2.185  1.00  0.00     0.293 HD
ENDBRANCH   5  19
BRANCH   6  21
ATOM     21  O   UNL     1      14.610   4.465  -3.276  1.00  0.00    -0.500 OA
ATOM     22  H   UNL     1      14.997   3.759  -2.736  1.00  0.00     0.294 HD
ENDBRANCH   6  21
TORSDOF 5
ENDMDL
MODEL 8
REMARK VINA RESULT:    -4.626      3.793      6.713
REMARK INTER + INTRA:          -6.546
REMARK INTER:                  -5.593
REMARK INTRA:                  -0.953
REMARK UNBOUND:                -0.838
REMARK SMILES Cc1ccc(C(=O)c2cc(O)c(O)c([N+](=O)[O-])c2)cc1
REMARK SMILES IDX 8 1 18 2 9 3 14 4 10 5 12 6 6 7 7 8 5 9 4 10 19 11 3 12
REMARK SMILES IDX 20 13 2 14 1 15 15 16 17 17 16 18 11 19 13 21
REMARK H PARENT 11 20 13 22
ROOT
ATOM      1  C   UNL     1      10.970   2.736  -2.585  1.00  0.00     0.033 A 
ATOM      2  C   UNL     1      11.527   3.990  -2.688  1.00  0.00     0.102 A 
ATOM      3  C   UNL     1      11.592   1.603  -3.053  1.00  0.00     0.063 A 
ATOM      4  C   UNL     1      12.777   4.117  -3.292  1.00  0.00     0.315 A 
ATOM      5  C   UNL     1      12.842   1.730  -3.659  1.00  0.00     0.165 A 
ATOM      6  C   UNL     1      13.435   2.988  -3.778  1.00  0.00     0.237 A 
ENDROOT
BRANCH   1   7
ATOM      7  C   UNL     1       9.631   2.600  -1.937  1.00  0.00     0.193 C 
ATOM      8  O   UNL     1       9.585   2.021  -0.841  1.00  0.00    -0.289 OA
BRANCH   7   9
ATOM      9  C   UNL     1       8.415   3.116  -2.545  1.00  0.00     0.023 A 
ATOM     10  C   UNL     1       8.211   2.985  -3.919  1.00  0.00     0.012 A 
ATOM     11  C   UNL     1       7.451   3.743  -1.754  1.00  0.00     0.012 A 
ATOM     12  C   UNL     1       7.045   3.480  -4.501  1.00  0.00     0.004 A 
ATOM     13  C   UNL     1       6.284   4.238  -2.336  1.00  0.00     0.004 A 
ATOM     14  C   UNL     1       6.081   4.107  -3.710  1.00  0.00    -0.051 A 
ATOM     15  C   UNL     1       4.835   4.637  -4.333  1.00  0.00     0.044 C 
ENDBRANCH   7   9
ENDBRANCH   1   7
BRANCH   4  16
ATOM     16  N   UNL     1      13.365   5.407  -3.405  1.00  0.00     0.066 N 
ATOM     17  O   UNL     1      12.618   6.402  -3.566  1.00  0.00    -0.258 OA
ATOM     18  O   UNL     1      14.612   5.512  -3.340  1.00  0.00    -0.258 OA
ENDBRANCH   4  16
BRANCH   5  19
ATOM     19  O   UNL     1      13.474   0.618  -4.128  1.00  0.00    -0.504 OA
ATOM     20  H   UNL     1      14.425   0.682  -3.943  1.00  0.00     0.293 HD
ENDBRANCH   5  19
BRANCH   6  21
ATOM     21  O   UNL     1      14.659   3.099  -4.371  1.00  0.00    -0.500 OA
ATOM     22  H   UNL     1      14.808   4.019  -4.641  1.00  0.00     0.294 HD
ENDBRANCH   6  21
TORSDOF 5
ENDMDL
MODEL 9
REMARK VINA RESULT:    -4.525      3.851      6.736
REMARK INTER + INTRA:          -6.421
REMARK INTER:                  -5.628
REMARK INTRA:                  -0.793
REMARK UNBOUND:                -0.838
REMARK SMILES Cc1ccc(C(=O)c2cc(O)c(O)c([N+](=O)[O-])c2)cc1
REMARK SMILES IDX 8 1 18 2 9 3 14 4 10 5 12 6 6 7 7 8 5 9 4 10 19 11 3 12
REMARK SMILES IDX 20 13 2 14 1 15 15 16 17 17 16 18 11 19 13 21
REMARK H PARENT 11 20 13 22
ROOT
ATOM      1  C   UNL     1      11.160   3.347  -3.341  1.00  0.00     0.033 A 
ATOM      2  C   UNL     1      11.057   4.658  -2.939  1.00  0.00     0.102 A 
ATOM      3  C   UNL     1      12.347   2.779  -3.740  1.00  0.00     0.063 A 
ATOM      4  C   UNL     1      12.208   5.446  -2.933  1.00  0.00     0.315 A 
ATOM      5  C   UNL     1      13.498   3.568  -3.735  1.00  0.00     0.165 A 
ATOM      6  C   UNL     1      13.428   4.901  -3.331  1.00  0.00     0.237 A 
ENDROOT
BRANCH   1   7
ATOM      7  C   UNL     1       9.927   2.503  -3.348  1.00  0.00     0.193 C 
ATOM      8  O   UNL     1      10.076   1.278  -3.224  1.00  0.00    -0.289 OA
BRANCH   7   9
ATOM      9  C   UNL     1       8.595   3.068  -3.491  1.00  0.00     0.023 A 
ATOM     10  C   UNL     1       8.015   3.174  -4.756  1.00  0.00     0.012 A 
ATOM     11  C   UNL     1       7.898   3.505  -2.365  1.00  0.00     0.012 A 
ATOM     12  C   UNL     1       6.738   3.717  -4.893  1.00  0.00     0.004 A 
ATOM     13  C   UNL     1       6.619   4.048  -2.502  1.00  0.00     0.004 A 
ATOM     14  C   UNL     1       6.039   4.154  -3.767  1.00  0.00    -0.051 A 
ATOM     15  C   UNL     1       4.674   4.735  -3.914  1.00  0.00     0.044 C 
ENDBRANCH   7   9
ENDBRANCH   1   7
BRANCH   4  16
ATOM     16  N   UNL     1      12.118   6.803  -2.518  1.00  0.00     0.066 N 
ATOM     17  O   UNL     1      11.049   7.429  -2.720  1.00  0.00    -0.258 OA
ATOM     18  O   UNL     1      13.107   7.334  -1.963  1.00  0.00    -0.258 OA
ENDBRANCH   4  16
BRANCH   5  19
ATOM     19  O   UNL     1      14.684   3.022  -4.126  1.00  0.00    -0.504 OA
ATOM     20  H   UNL     1      14.746   3.039  -5.095  1.00  0.00     0.293 HD
ENDBRANCH   5  19
BRANCH   6  21
ATOM     21  O   UNL     1      14.561   5.662  -3.329  1.00  0.00    -0.500 OA
ATOM     22  H   UNL     1      15.168   5.344  -4.016  1.00  0.00     0.294 HD
ENDBRANCH   6  21
TORSDOF 5
ENDMDL
