MODEL 1
REMARK VINA RESULT:    -6.673      0.000      0.000
REMARK INTER + INTRA:          -8.474
REMARK INTER:                  -7.843
REMARK INTRA:                  -0.630
REMARK UNBOUND:                -0.630
REMARK SMILES O=C(O)c1cc(-c2ccc(F)cc2F)ccc1O
REMARK SMILES IDX 6 1 5 2 15 3 4 4 17 5 16 6 7 7 13 8 12 9 8 10 10 11 9 12
REMARK SMILES IDX 14 13 11 14 2 15 1 16 3 17 18 19
REMARK H PARENT 3 18 18 20
ROOT
ATOM      1  C   UNL     1       7.654   2.727  -2.760  1.00  0.00    -0.014 A 
ATOM      2  C   UNL     1       7.242   1.542  -2.150  1.00  0.00     0.028 A 
ATOM      3  C   UNL     1       6.710   3.680  -3.142  1.00  0.00     0.013 A 
ATOM      4  C   UNL     1       5.885   1.310  -1.923  1.00  0.00     0.102 A 
ATOM      5  C   UNL     1       4.941   2.263  -2.305  1.00  0.00     0.130 A 
ATOM      6  C   UNL     1       5.354   3.449  -2.914  1.00  0.00     0.048 A 
ENDROOT
BRANCH   1   7
ATOM      7  C   UNL     1       9.061   2.967  -2.997  1.00  0.00     0.018 A 
ATOM      8  C   UNL     1       9.994   2.723  -1.989  1.00  0.00     0.133 A 
ATOM      9  C   UNL     1      11.350   2.957  -2.222  1.00  0.00     0.079 A 
ATOM     10  C   UNL     1       9.484   3.443  -4.238  1.00  0.00     0.015 A 
ATOM     11  C   UNL     1      11.772   3.434  -3.462  1.00  0.00     0.126 A 
ATOM     12  C   UNL     1      10.839   3.676  -4.471  1.00  0.00     0.040 A 
ATOM     13  F   UNL     1       9.604   2.268  -0.790  1.00  0.00    -0.206 F 
ATOM     14  F   UNL     1      13.073   3.658  -3.687  1.00  0.00    -0.207 F 
ENDBRANCH   1   7
BRANCH   4  15
ATOM     15  C   UNL     1       5.475   0.067  -1.285  1.00  0.00     0.339 C 
ATOM     16  O   UNL     1       4.558  -0.663  -1.668  1.00  0.00    -0.246 OA
BRANCH  15  17
ATOM     17  O   UNL     1       6.226  -0.225  -0.188  1.00  0.00    -0.478 OA
ATOM     18  H   UNL     1       6.830   0.510   0.047  1.00  0.00     0.297 HD
ENDBRANCH  15  17
ENDBRANCH   4  15
BRANCH   5  19
ATOM     19  O   UNL     1       3.611   2.056  -2.091  1.00  0.00    -0.507 OA
ATOM     20  H   UNL     1       3.292   1.377  -2.710  1.00  0.00     0.293 HD
ENDBRANCH   5  19
TORSDOF 4
ENDMDL
MODEL 2
REMARK VINA RESULT:    -6.671      1.130      1.608
REMARK INTER + INTRA:          -8.471
REMARK INTER:                  -7.826
REMARK INTRA:                  -0.645
REMARK UNBOUND:                -0.630
REMARK SMILES O=C(O)c1cc(-c2ccc(F)cc2F)ccc1O
REMARK SMILES IDX 6 1 5 2 15 3 4 4 17 5 16 6 7 7 13 8 12 9 8 10 10 11 9 12
REMARK SMILES IDX 14 13 11 14 2 15 1 16 3 17 18 19
REMARK H PARENT 3 18 18 20
ROOT
ATOM      1  C   UNL     1       7.630   2.724  -2.796  1.00  0.00    -0.014 A 
ATOM      2  C   UNL     1       7.227   1.540  -2.178  1.00  0.00     0.028 A 
ATOM      3  C   UNL     1       6.679   3.674  -3.168  1.00  0.00     0.013 A 
ATOM      4  C   UNL     1       5.874   1.306  -1.933  1.00  0.00     0.102 A 
ATOM      5  C   UNL     1       4.923   2.256  -2.305  1.00  0.00     0.130 A 
ATOM      6  C   UNL     1       5.326   3.441  -2.923  1.00  0.00     0.048 A 
ENDROOT
BRANCH   1   7
ATOM      7  C   UNL     1       9.033   2.966  -3.051  1.00  0.00     0.018 A 
ATOM      8  C   UNL     1       9.450   3.406  -4.308  1.00  0.00     0.133 A 
ATOM      9  C   UNL     1      10.804   3.638  -4.551  1.00  0.00     0.079 A 
ATOM     10  C   UNL     1       9.969   2.761  -2.038  1.00  0.00     0.015 A 
ATOM     11  C   UNL     1      11.740   3.433  -3.538  1.00  0.00     0.126 A 
ATOM     12  C   UNL     1      11.322   2.994  -2.281  1.00  0.00     0.040 A 
ATOM     13  F   UNL     1       8.564   3.605  -5.294  1.00  0.00    -0.206 F 
ATOM     14  F   UNL     1      13.040   3.656  -3.770  1.00  0.00    -0.207 F 
ENDBRANCH   1   7
BRANCH   4  15
ATOM     15  C   UNL     1       5.474   0.063  -1.287  1.00  0.00     0.339 C 
ATOM     16  O   UNL     1       4.558  -0.673  -1.661  1.00  0.00    -0.246 OA
BRANCH  15  17
ATOM     17  O   UNL     1       6.233  -0.220  -0.194  1.00  0.00    -0.478 OA
ATOM     18  H   UNL     1       6.153   0.472   0.495  1.00  0.00     0.297 HD
ENDBRANCH  15  17
ENDBRANCH   4  15
BRANCH   5  19
ATOM     19  O   UNL     1       3.596   2.047  -2.074  1.00  0.00    -0.507 OA
ATOM     20  H   UNL     1       3.231   2.818  -1.606  1.00  0.00     0.293 HD
ENDBRANCH   5  19
TORSDOF 4
ENDMDL
MODEL 3
REMARK VINA RESULT:    -6.652      1.705      3.199
REMARK INTER + INTRA:          -8.449
REMARK INTER:                  -7.819
REMARK INTRA:                  -0.630
REMARK UNBOUND:                -0.630
REMARK SMILES O=C(O)c1cc(-c2ccc(F)cc2F)ccc1O
REMARK SMILES IDX 6 1 5 2 15 3 4 4 17 5 16 6 7 7 13 8 12 9 8 10 10 11 9 12
REMARK SMILES IDX 14 13 11 14 2 15 1 16 3 17 18 19
REMARK H PARENT 3 18 18 20
ROOT
ATOM      1  C   UNL     1       7.650   2.717  -2.935  1.00  0.00    -0.014 A 
ATOM      2  C   UNL     1       6.760   3.705  -3.355  1.00  0.00     0.028 A 
ATOM      3  C   UNL     1       7.167   1.548  -2.347  1.00  0.00     0.013 A 
ATOM      4  C   UNL     1       5.387   3.525  -3.186  1.00  0.00     0.102 A 
ATOM      5  C   UNL     1       4.904   2.356  -2.598  1.00  0.00     0.130 A 
ATOM      6  C   UNL     1       5.794   1.367  -2.178  1.00  0.00     0.048 A 
ENDROOT
BRANCH   1   7
ATOM      7  C   UNL     1       9.074   2.903  -3.108  1.00  0.00     0.018 A 
ATOM      8  C   UNL     1       9.578   3.364  -4.325  1.00  0.00     0.133 A 
ATOM      9  C   UNL     1      10.952   3.542  -4.488  1.00  0.00     0.079 A 
ATOM     10  C   UNL     1       9.944   2.623  -2.055  1.00  0.00     0.015 A 
ATOM     11  C   UNL     1      11.821   3.261  -3.435  1.00  0.00     0.126 A 
ATOM     12  C   UNL     1      11.317   2.801  -2.218  1.00  0.00     0.040 A 
ATOM     13  F   UNL     1       8.755   3.636  -5.349  1.00  0.00    -0.206 F 
ATOM     14  F   UNL     1      13.140   3.432  -3.590  1.00  0.00    -0.207 F 
ENDBRANCH   1   7
BRANCH   4  15
ATOM     15  C   UNL     1       4.474   4.569  -3.632  1.00  0.00     0.339 C 
ATOM     16  O   UNL     1       3.529   5.018  -2.978  1.00  0.00    -0.246 OA
BRANCH  15  17
ATOM     17  O   UNL     1       4.773   5.021  -4.880  1.00  0.00    -0.478 OA
ATOM     18  H   UNL     1       4.938   4.283  -5.505  1.00  0.00     0.297 HD
ENDBRANCH  15  17
ENDBRANCH   4  15
BRANCH   5  19
ATOM     19  O   UNL     1       3.566   2.161  -2.425  1.00  0.00    -0.507 OA
ATOM     20  H   UNL     1       3.247   1.534  -3.098  1.00  0.00     0.293 HD
ENDBRANCH   5  19
TORSDOF 4
ENDMDL
MODEL 4
REMARK VINA RESULT:    -6.647      1.306      2.762
REMARK INTER + INTRA:          -8.443
REMARK INTER:                  -7.805
REMARK INTRA:                  -0.639
REMARK UNBOUND:                -0.630
REMARK SMILES O=C(O)c1cc(-c2ccc(F)cc2F)ccc1O
REMARK SMILES IDX 6 1 5 2 15 3 4 4 17 5 16 6 7 7 13 8 12 9 8 10 10 11 9 12
REMARK SMILES IDX 14 13 11 14 2 15 1 16 3 17 18 19
REMARK H PARENT 3 18 18 20
ROOT
ATOM      1  C   UNL     1       7.640   2.710  -2.890  1.00  0.00    -0.014 A 
ATOM      2  C   UNL     1       6.758   3.699  -3.321  1.00  0.00     0.028 A 
ATOM      3  C   UNL     1       7.148   1.543  -2.305  1.00  0.00     0.013 A 
ATOM      4  C   UNL     1       5.382   3.523  -3.167  1.00  0.00     0.102 A 
ATOM      5  C   UNL     1       4.890   2.356  -2.582  1.00  0.00     0.130 A 
ATOM      6  C   UNL     1       5.774   1.366  -2.151  1.00  0.00     0.048 A 
ENDROOT
BRANCH   1   7
ATOM      7  C   UNL     1       9.067   2.893  -3.048  1.00  0.00     0.018 A 
ATOM      8  C   UNL     1       9.929   2.635  -1.981  1.00  0.00     0.133 A 
ATOM      9  C   UNL     1      11.304   2.813  -2.138  1.00  0.00     0.079 A 
ATOM     10  C   UNL     1       9.580   3.326  -4.270  1.00  0.00     0.015 A 
ATOM     11  C   UNL     1      11.816   3.247  -3.360  1.00  0.00     0.126 A 
ATOM     12  C   UNL     1      10.954   3.503  -4.426  1.00  0.00     0.040 A 
ATOM     13  F   UNL     1       9.452   2.221  -0.799  1.00  0.00    -0.206 F 
ATOM     14  F   UNL     1      13.136   3.418  -3.511  1.00  0.00    -0.207 F 
ENDBRANCH   1   7
BRANCH   4  15
ATOM     15  C   UNL     1       4.477   4.569  -3.623  1.00  0.00     0.339 C 
ATOM     16  O   UNL     1       3.527   5.021  -2.980  1.00  0.00    -0.246 OA
BRANCH  15  17
ATOM     17  O   UNL     1       4.789   5.016  -4.870  1.00  0.00    -0.478 OA
ATOM     18  H   UNL     1       5.657   5.471  -4.887  1.00  0.00     0.297 HD
ENDBRANCH  15  17
ENDBRANCH   4  15
BRANCH   5  19
ATOM     19  O   UNL     1       3.550   2.164  -2.423  1.00  0.00    -0.507 OA
ATOM     20  H   UNL     1       3.379   1.860  -1.515  1.00  0.00     0.293 HD
ENDBRANCH   5  19
TORSDOF 4
ENDMDL
MODEL 5
REMARK VINA RESULT:    -5.437      1.711      2.920
REMARK INTER + INTRA:          -7.021
REMARK INTER:                  -6.147
REMARK INTRA:                  -0.873
REMARK UNBOUND:                -0.630
REMARK SMILES O=C(O)c1cc(-c2ccc(F)cc2F)ccc1O
REMARK SMILES IDX 6 1 5 2 15 3 4 4 17 5 16 6 7 7 13 8 12 9 8 10 10 11 9 12
REMARK SMILES IDX 14 13 11 14 2 15 1 16 3 17 18 19
REMARK H PARENT 3 18 18 20
ROOT
ATOM      1  C   UNL     1       8.385   3.092  -2.669  1.00  0.00    -0.014 A 
ATOM      2  C   UNL     1       7.391   3.813  -3.330  1.00  0.00     0.028 A 
ATOM      3  C   UNL     1       8.036   2.123  -1.729  1.00  0.00     0.013 A 
ATOM      4  C   UNL     1       6.047   3.564  -3.052  1.00  0.00     0.102 A 
ATOM      5  C   UNL     1       5.697   2.594  -2.112  1.00  0.00     0.130 A 
ATOM      6  C   UNL     1       6.692   1.873  -1.450  1.00  0.00     0.048 A 
ENDROOT
BRANCH   1   7
ATOM      7  C   UNL     1       9.780   3.351  -2.956  1.00  0.00     0.018 A 
ATOM      8  C   UNL     1      10.596   2.328  -3.440  1.00  0.00     0.133 A 
ATOM      9  C   UNL     1      11.940   2.582  -3.715  1.00  0.00     0.079 A 
ATOM     10  C   UNL     1      10.306   4.626  -2.749  1.00  0.00     0.015 A 
ATOM     11  C   UNL     1      12.467   3.856  -3.507  1.00  0.00     0.126 A 
ATOM     12  C   UNL     1      11.649   4.878  -3.025  1.00  0.00     0.040 A 
ATOM     13  F   UNL     1      10.107   1.097  -3.641  1.00  0.00    -0.206 F 
ATOM     14  F   UNL     1      13.757   4.100  -3.771  1.00  0.00    -0.207 F 
ENDBRANCH   1   7
BRANCH   4  15
ATOM     15  C   UNL     1       5.023   4.327  -3.754  1.00  0.00     0.339 C 
ATOM     16  O   UNL     1       5.066   4.653  -4.942  1.00  0.00    -0.246 OA
BRANCH  15  17
ATOM     17  O   UNL     1       3.978   4.656  -2.947  1.00  0.00    -0.478 OA
ATOM     18  H   UNL     1       4.272   5.148  -2.152  1.00  0.00     0.297 HD
ENDBRANCH  15  17
ENDBRANCH   4  15
BRANCH   5  19
ATOM     19  O   UNL     1       4.390   2.335  -1.826  1.00  0.00    -0.507 OA
ATOM     20  H   UNL     1       4.069   2.993  -1.184  1.00  0.00     0.293 HD
ENDBRANCH   5  19
TORSDOF 4
ENDMDL
MODEL 6
REMARK VINA RESULT:    -5.389      1.684      2.925
REMARK INTER + INTRA:          -6.964
REMARK INTER:                  -6.209
REMARK INTRA:                  -0.755
REMARK UNBOUND:                -0.630
REMARK SMILES O=C(O)c1cc(-c2ccc(F)cc2F)ccc1O
REMARK SMILES IDX 6 1 5 2 15 3 4 4 17 5 16 6 7 7 13 8 12 9 8 10 10 11 9 12
REMARK SMILES IDX 14 13 11 14 2 15 1 16 3 17 18 19
REMARK H PARENT 3 18 18 20
ROOT
ATOM      1  C   UNL     1       8.201   2.781  -2.761  1.00  0.00    -0.014 A 
ATOM      2  C   UNL     1       7.263   3.616  -3.367  1.00  0.00     0.028 A 
ATOM      3  C   UNL     1       7.781   1.776  -1.891  1.00  0.00     0.013 A 
ATOM      4  C   UNL     1       5.904   3.446  -3.103  1.00  0.00     0.102 A 
ATOM      5  C   UNL     1       5.483   2.440  -2.233  1.00  0.00     0.130 A 
ATOM      6  C   UNL     1       6.423   1.605  -1.626  1.00  0.00     0.048 A 
ENDROOT
BRANCH   1   7
ATOM      7  C   UNL     1       9.612   2.958  -3.034  1.00  0.00     0.018 A 
ATOM      8  C   UNL     1      10.193   4.222  -2.924  1.00  0.00     0.133 A 
ATOM      9  C   UNL     1      11.553   4.388  -3.188  1.00  0.00     0.079 A 
ATOM     10  C   UNL     1      10.389   1.862  -3.405  1.00  0.00     0.015 A 
ATOM     11  C   UNL     1      12.330   3.292  -3.560  1.00  0.00     0.126 A 
ATOM     12  C   UNL     1      11.748   2.029  -3.668  1.00  0.00     0.040 A 
ATOM     13  F   UNL     1       9.459   5.286  -2.571  1.00  0.00    -0.206 F 
ATOM     14  F   UNL     1      13.636   3.450  -3.814  1.00  0.00    -0.207 F 
ENDBRANCH   1   7
BRANCH   4  15
ATOM     15  C   UNL     1       4.940   4.328  -3.746  1.00  0.00     0.339 C 
ATOM     16  O   UNL     1       4.995   4.714  -4.916  1.00  0.00    -0.246 OA
BRANCH  15  17
ATOM     17  O   UNL     1       3.935   4.699  -2.906  1.00  0.00    -0.478 OA
ATOM     18  H   UNL     1       3.465   5.496  -3.229  1.00  0.00     0.297 HD
ENDBRANCH  15  17
ENDBRANCH   4  15
BRANCH   5  19
ATOM     19  O   UNL     1       4.160   2.257  -1.962  1.00  0.00    -0.507 OA
ATOM     20  H   UNL     1       3.676   3.072  -2.180  1.00  0.00     0.293 HD
ENDBRANCH   5  19
TORSDOF 4
ENDMDL
MODEL 7
REMARK VINA RESULT:    -5.204      4.175      6.425
REMARK INTER + INTRA:          -6.747
REMARK INTER:                  -5.663
REMARK INTRA:                  -1.085
REMARK UNBOUND:                -0.630
REMARK SMILES O=C(O)c1cc(-c2ccc(F)cc2F)ccc1O
REMARK SMILES IDX 6 1 5 2 15 3 4 4 17 5 16 6 7 7 13 8 12 9 8 10 10 11 9 12
REMARK SMILES IDX 14 13 11 14 2 15 1 16 3 17 18 19
REMARK H PARENT 3 18 18 20
ROOT
ATOM      1  C   UNL     1      10.176   3.088  -3.237  1.00  0.00    -0.014 A 
ATOM      2  C   UNL     1      10.961   1.984  -3.570  1.00  0.00     0.028 A 
ATOM      3  C   UNL     1      10.765   4.344  -3.096  1.00  0.00     0.013 A 
ATOM      4  C   UNL     1      12.334   2.136  -3.762  1.00  0.00     0.102 A 
ATOM      5  C   UNL     1      12.922   3.393  -3.622  1.00  0.00     0.130 A 
ATOM      6  C   UNL     1      12.137   4.498  -3.289  1.00  0.00     0.048 A 
ENDROOT
BRANCH   1   7
ATOM      7  C   UNL     1       8.752   2.930  -3.036  1.00  0.00     0.018 A 
ATOM      8  C   UNL     1       7.867   3.144  -4.094  1.00  0.00     0.133 A 
ATOM      9  C   UNL     1       6.495   2.992  -3.895  1.00  0.00     0.079 A 
ATOM     10  C   UNL     1       8.264   2.562  -1.782  1.00  0.00     0.015 A 
ATOM     11  C   UNL     1       6.007   2.625  -2.642  1.00  0.00     0.126 A 
ATOM     12  C   UNL     1       6.893   2.409  -1.585  1.00  0.00     0.040 A 
ATOM     13  F   UNL     1       8.319   3.501  -5.304  1.00  0.00    -0.206 F 
ATOM     14  F   UNL     1       4.690   2.478  -2.451  1.00  0.00    -0.207 F 
ENDBRANCH   1   7
BRANCH   4  15
ATOM     15  C   UNL     1      13.136   0.971  -4.110  1.00  0.00     0.339 C 
ATOM     16  O   UNL     1      12.787   0.066  -4.872  1.00  0.00    -0.246 OA
BRANCH  15  17
ATOM     17  O   UNL     1      14.349   0.975  -3.494  1.00  0.00    -0.478 OA
ATOM     18  H   UNL     1      14.276   0.752  -2.542  1.00  0.00     0.297 HD
ENDBRANCH  15  17
ENDBRANCH   4  15
BRANCH   5  19
ATOM     19  O   UNL     1      14.262   3.563  -3.806  1.00  0.00    -0.507 OA
ATOM     20  H   UNL     1      14.405   4.222  -4.508  1.00  0.00     0.293 HD
ENDBRANCH   5  19
TORSDOF 4
ENDMDL
MODEL 8
REMARK VINA RESULT:    -5.197      4.498      6.867
REMARK INTER + INTRA:          -6.738
REMARK INTER:                  -5.671
REMARK INTRA:                  -1.067
REMARK UNBOUND:                -0.630
REMARK SMILES O=C(O)c1cc(-c2ccc(F)cc2F)ccc1O
REMARK SMILES IDX 6 1 5 2 15 3 4 4 17 5 16 6 7 7 13 8 12 9 8 10 10 11 9 12
REMARK SMILES IDX 14 13 11 14 2 15 1 16 3 17 18 19
REMARK H PARENT 3 18 18 20
ROOT
ATOM      1  C   UNL     1      10.158   3.132  -3.208  1.00  0.00    -0.014 A 
ATOM      2  C   UNL     1      10.687   4.419  -3.129  1.00  0.00     0.028 A 
ATOM      3  C   UNL     1      10.994   2.049  -3.479  1.00  0.00     0.013 A 
ATOM      4  C   UNL     1      12.054   4.624  -3.320  1.00  0.00     0.102 A 
ATOM      5  C   UNL     1      12.890   3.541  -3.591  1.00  0.00     0.130 A 
ATOM      6  C   UNL     1      12.360   2.253  -3.670  1.00  0.00     0.048 A 
ENDROOT
BRANCH   1   7
ATOM      7  C   UNL     1       8.740   2.918  -3.011  1.00  0.00     0.018 A 
ATOM      8  C   UNL     1       7.850   3.104  -4.070  1.00  0.00     0.133 A 
ATOM      9  C   UNL     1       6.484   2.897  -3.875  1.00  0.00     0.079 A 
ATOM     10  C   UNL     1       8.264   2.525  -1.760  1.00  0.00     0.015 A 
ATOM     11  C   UNL     1       6.008   2.505  -2.624  1.00  0.00     0.126 A 
ATOM     12  C   UNL     1       6.899   2.319  -1.567  1.00  0.00     0.040 A 
ATOM     13  F   UNL     1       8.290   3.484  -5.277  1.00  0.00    -0.206 F 
ATOM     14  F   UNL     1       4.697   2.307  -2.437  1.00  0.00    -0.207 F 
ENDBRANCH   1   7
BRANCH   4  15
ATOM     15  C   UNL     1      12.588   5.976  -3.233  1.00  0.00     0.339 C 
ATOM     16  O   UNL     1      13.681   6.342  -3.671  1.00  0.00    -0.246 OA
BRANCH  15  17
ATOM     17  O   UNL     1      11.737   6.830  -2.600  1.00  0.00    -0.478 OA
ATOM     18  H   UNL     1      10.911   6.965  -3.110  1.00  0.00     0.297 HD
ENDBRANCH  15  17
ENDBRANCH   4  15
BRANCH   5  19
ATOM     19  O   UNL     1      14.228   3.720  -3.780  1.00  0.00    -0.507 OA
ATOM     20  H   UNL     1      14.687   2.878  -3.617  1.00  0.00     0.293 HD
ENDBRANCH   5  19
TORSDOF 4
ENDMDL
MODEL 9
REMARK VINA RESULT:    -4.909      1.748      2.333
REMARK INTER + INTRA:          -6.400
REMARK INTER:                  -5.362
REMARK INTRA:                  -1.038
REMARK UNBOUND:                -0.630
REMARK SMILES O=C(O)c1cc(-c2ccc(F)cc2F)ccc1O
REMARK SMILES IDX 6 1 5 2 15 3 4 4 17 5 16 6 7 7 13 8 12 9 8 10 10 11 9 12
REMARK SMILES IDX 14 13 11 14 2 15 1 16 3 17 18 19
REMARK H PARENT 3 18 18 20
ROOT
ATOM      1  C   UNL     1       9.425   3.062  -3.276  1.00  0.00    -0.014 A 
ATOM      2  C   UNL     1       8.993   2.431  -2.110  1.00  0.00     0.028 A 
ATOM      3  C   UNL     1       8.545   3.229  -4.346  1.00  0.00     0.013 A 
ATOM      4  C   UNL     1       7.682   1.965  -2.013  1.00  0.00     0.102 A 
ATOM      5  C   UNL     1       6.802   2.132  -3.082  1.00  0.00     0.130 A 
ATOM      6  C   UNL     1       7.234   2.764  -4.249  1.00  0.00     0.048 A 
ENDROOT
BRANCH   1   7
ATOM      7  C   UNL     1      10.786   3.544  -3.378  1.00  0.00     0.018 A 
ATOM      8  C   UNL     1      11.820   2.660  -3.688  1.00  0.00     0.133 A 
ATOM      9  C   UNL     1      13.131   3.128  -3.785  1.00  0.00     0.079 A 
ATOM     10  C   UNL     1      11.061   4.894  -3.167  1.00  0.00     0.015 A 
ATOM     11  C   UNL     1      13.406   4.479  -3.573  1.00  0.00     0.126 A 
ATOM     12  C   UNL     1      12.371   5.362  -3.265  1.00  0.00     0.040 A 
ATOM     13  F   UNL     1      11.572   1.358  -3.891  1.00  0.00    -0.206 F 
ATOM     14  F   UNL     1      14.664   4.929  -3.667  1.00  0.00    -0.207 F 
ENDBRANCH   1   7
BRANCH   4  15
ATOM     15  C   UNL     1       7.250   1.309  -0.787  1.00  0.00     0.339 C 
ATOM     16  O   UNL     1       6.405   0.413  -0.716  1.00  0.00    -0.246 OA
BRANCH  15  17
ATOM     17  O   UNL     1       7.891   1.792   0.313  1.00  0.00    -0.478 OA
ATOM     18  H   UNL     1       7.341   2.442   0.799  1.00  0.00     0.297 HD
ENDBRANCH  15  17
ENDBRANCH   4  15
BRANCH   5  19
ATOM     19  O   UNL     1       5.516   1.685  -3.007  1.00  0.00    -0.507 OA
ATOM     20  H   UNL     1       5.467   0.967  -2.352  1.00  0.00     0.293 HD
ENDBRANCH   5  19
TORSDOF 4
ENDMDL
