MODEL 1
REMARK VINA RESULT:    -5.091      0.000      0.000
REMARK INTER + INTRA:          -7.096
REMARK INTER:                  -6.282
REMARK INTRA:                  -0.813
REMARK UNBOUND:                -0.813
REMARK SMILES Cc1ccc(C(=O)c2cc(O)c(O)c([N+](=O)[O-])c2)cc1
REMARK SMILES IDX 8 1 18 2 9 3 14 4 10 5 12 6 6 7 7 8 5 9 4 10 19 11 3 12
REMARK SMILES IDX 20 13 2 14 1 15 15 16 17 17 16 18 11 19 13 21
REMARK H PARENT 11 20 13 22
ROOT
ATOM      1  C   UNL     1       4.249  -5.613  -3.120  1.00  0.00     0.033 A 
ATOM      2  C   UNL     1       2.876  -5.711  -3.112  1.00  0.00     0.102 A 
ATOM      3  C   UNL     1       4.926  -4.572  -2.530  1.00  0.00     0.063 A 
ATOM      4  C   UNL     1       2.140  -4.712  -2.475  1.00  0.00     0.315 A 
ATOM      5  C   UNL     1       4.190  -3.573  -1.893  1.00  0.00     0.165 A 
ATOM      6  C   UNL     1       2.796  -3.643  -1.865  1.00  0.00     0.237 A 
ENDROOT
BRANCH   1   7
ATOM      7  C   UNL     1       5.037  -6.682  -3.802  1.00  0.00     0.193 C 
ATOM      8  O   UNL     1       6.110  -7.019  -3.279  1.00  0.00    -0.289 OA
BRANCH   7   9
ATOM      9  C   UNL     1       4.589  -7.320  -5.030  1.00  0.00     0.023 A 
ATOM     10  C   UNL     1       4.980  -6.805  -6.266  1.00  0.00     0.012 A 
ATOM     11  C   UNL     1       3.767  -8.445  -4.972  1.00  0.00     0.012 A 
ATOM     12  C   UNL     1       4.550  -7.417  -7.443  1.00  0.00     0.004 A 
ATOM     13  C   UNL     1       3.336  -9.057  -6.149  1.00  0.00     0.004 A 
ATOM     14  C   UNL     1       3.727  -8.543  -7.386  1.00  0.00    -0.051 A 
ATOM     15  C   UNL     1       3.266  -9.195  -8.644  1.00  0.00     0.044 C 
ENDBRANCH   7   9
ENDBRANCH   1   7
BRANCH   4  16
ATOM     16  N   UNL     1       0.721  -4.801  -2.457  1.00  0.00     0.066 N 
ATOM     17  O   UNL     1       0.048  -3.742  -2.431  1.00  0.00    -0.258 OA
ATOM     18  O   UNL     1       0.184  -5.933  -2.469  1.00  0.00    -0.258 OA
ENDBRANCH   4  16
BRANCH   5  19
ATOM     19  O   UNL     1       4.844  -2.534  -1.302  1.00  0.00    -0.504 OA
ATOM     20  H   UNL     1       5.578  -2.876  -0.765  1.00  0.00     0.293 HD
ENDBRANCH   5  19
BRANCH   6  21
ATOM     21  O   UNL     1       2.087  -2.660  -1.239  1.00  0.00    -0.500 OA
ATOM     22  H   UNL     1       2.056  -2.836  -0.286  1.00  0.00     0.294 HD
ENDBRANCH   6  21
TORSDOF 5
ENDMDL
MODEL 2
REMARK VINA RESULT:    -5.086      2.051      3.547
REMARK INTER + INTRA:          -7.089
REMARK INTER:                  -6.266
REMARK INTRA:                  -0.823
REMARK UNBOUND:                -0.813
REMARK SMILES Cc1ccc(C(=O)c2cc(O)c(O)c([N+](=O)[O-])c2)cc1
REMARK SMILES IDX 8 1 18 2 9 3 14 4 10 5 12 6 6 7 7 8 5 9 4 10 19 11 3 12
REMARK SMILES IDX 20 13 2 14 1 15 15 16 17 17 16 18 11 19 13 21
REMARK H PARENT 11 20 13 22
ROOT
ATOM      1  C   UNL     1       2.888  -5.226  -4.310  1.00  0.00     0.033 A 
ATOM      2  C   UNL     1       3.969  -4.521  -3.835  1.00  0.00     0.102 A 
ATOM      3  C   UNL     1       1.629  -5.118  -3.769  1.00  0.00     0.063 A 
ATOM      4  C   UNL     1       3.779  -3.656  -2.757  1.00  0.00     0.315 A 
ATOM      5  C   UNL     1       1.439  -4.254  -2.690  1.00  0.00     0.165 A 
ATOM      6  C   UNL     1       2.514  -3.522  -2.184  1.00  0.00     0.237 A 
ENDROOT
BRANCH   1   7
ATOM      7  C   UNL     1       3.091  -6.153  -5.465  1.00  0.00     0.193 C 
ATOM      8  O   UNL     1       2.208  -6.178  -6.336  1.00  0.00    -0.289 OA
BRANCH   7   9
ATOM      9  C   UNL     1       4.266  -7.000  -5.588  1.00  0.00     0.023 A 
ATOM     10  C   UNL     1       4.252  -8.292  -5.063  1.00  0.00     0.012 A 
ATOM     11  C   UNL     1       5.407  -6.520  -6.231  1.00  0.00     0.012 A 
ATOM     12  C   UNL     1       5.380  -9.104  -5.181  1.00  0.00     0.004 A 
ATOM     13  C   UNL     1       6.536  -7.333  -6.349  1.00  0.00     0.004 A 
ATOM     14  C   UNL     1       6.522  -8.625  -5.824  1.00  0.00    -0.051 A 
ATOM     15  C   UNL     1       7.727  -9.494  -5.949  1.00  0.00     0.044 C 
ENDBRANCH   7   9
ENDBRANCH   1   7
BRANCH   4  16
ATOM     16  N   UNL     1       4.887  -2.920  -2.255  1.00  0.00     0.066 N 
ATOM     17  O   UNL     1       5.727  -2.460  -3.066  1.00  0.00    -0.258 OA
ATOM     18  O   UNL     1       4.991  -2.751  -1.018  1.00  0.00    -0.258 OA
ENDBRANCH   4  16
BRANCH   5  19
ATOM     19  O   UNL     1       0.198  -4.133  -2.141  1.00  0.00    -0.504 OA
ATOM     20  H   UNL     1      -0.436  -4.666  -2.648  1.00  0.00     0.293 HD
ENDBRANCH   5  19
BRANCH   6  21
ATOM     21  O   UNL     1       2.316  -2.680  -1.129  1.00  0.00    -0.500 OA
ATOM     22  H   UNL     1       1.584  -3.007  -0.584  1.00  0.00     0.294 HD
ENDBRANCH   6  21
TORSDOF 5
ENDMDL
MODEL 3
REMARK VINA RESULT:    -4.473      1.785      2.061
REMARK INTER + INTRA:          -6.333
REMARK INTER:                  -5.769
REMARK INTRA:                  -0.564
REMARK UNBOUND:                -0.813
REMARK SMILES Cc1ccc(C(=O)c2cc(O)c(O)c([N+](=O)[O-])c2)cc1
REMARK SMILES IDX 8 1 18 2 9 3 14 4 10 5 12 6 6 7 7 8 5 9 4 10 19 11 3 12
REMARK SMILES IDX 20 13 2 14 1 15 15 16 17 17 16 18 11 19 13 21
REMARK H PARENT 11 20 13 22
ROOT
ATOM      1  C   UNL     1       3.913  -4.005  -3.963  1.00  0.00     0.033 A 
ATOM      2  C   UNL     1       2.574  -4.281  -3.812  1.00  0.00     0.102 A 
ATOM      3  C   UNL     1       4.674  -3.435  -2.970  1.00  0.00     0.063 A 
ATOM      4  C   UNL     1       1.962  -3.971  -2.597  1.00  0.00     0.315 A 
ATOM      5  C   UNL     1       4.062  -3.124  -1.755  1.00  0.00     0.165 A 
ATOM      6  C   UNL     1       2.705  -3.393  -1.569  1.00  0.00     0.237 A 
ENDROOT
BRANCH   1   7
ATOM      7  C   UNL     1       4.568  -4.336  -5.264  1.00  0.00     0.193 C 
ATOM      8  O   UNL     1       4.754  -3.405  -6.061  1.00  0.00    -0.289 OA
BRANCH   7   9
ATOM      9  C   UNL     1       4.982  -5.688  -5.606  1.00  0.00     0.023 A 
ATOM     10  C   UNL     1       6.049  -5.890  -6.482  1.00  0.00     0.012 A 
ATOM     11  C   UNL     1       4.313  -6.782  -5.058  1.00  0.00     0.012 A 
ATOM     12  C   UNL     1       6.446  -7.186  -6.810  1.00  0.00     0.004 A 
ATOM     13  C   UNL     1       4.710  -8.079  -5.386  1.00  0.00     0.004 A 
ATOM     14  C   UNL     1       5.777  -8.281  -6.262  1.00  0.00    -0.051 A 
ATOM     15  C   UNL     1       6.201  -9.666  -6.614  1.00  0.00     0.044 C 
ENDBRANCH   7   9
ENDBRANCH   1   7
BRANCH   4  16
ATOM     16  N   UNL     1       0.578  -4.252  -2.426  1.00  0.00     0.066 N 
ATOM     17  O   UNL     1       0.193  -5.445  -2.460  1.00  0.00    -0.258 OA
ATOM     18  O   UNL     1      -0.215  -3.299  -2.245  1.00  0.00    -0.258 OA
ENDBRANCH   4  16
BRANCH   5  19
ATOM     19  O   UNL     1       4.801  -2.560  -0.759  1.00  0.00    -0.504 OA
ATOM     20  H   UNL     1       4.858  -1.601  -0.900  1.00  0.00     0.293 HD
ENDBRANCH   5  19
BRANCH   6  21
ATOM     21  O   UNL     1       2.118  -3.085  -0.376  1.00  0.00    -0.500 OA
ATOM     22  H   UNL     1       2.801  -2.873   0.279  1.00  0.00     0.294 HD
ENDBRANCH   6  21
TORSDOF 5
ENDMDL
MODEL 4
REMARK VINA RESULT:    -4.460      1.674      2.966
REMARK INTER + INTRA:          -6.317
REMARK INTER:                  -5.746
REMARK INTRA:                  -0.571
REMARK UNBOUND:                -0.813
REMARK SMILES Cc1ccc(C(=O)c2cc(O)c(O)c([N+](=O)[O-])c2)cc1
REMARK SMILES IDX 8 1 18 2 9 3 14 4 10 5 12 6 6 7 7 8 5 9 4 10 19 11 3 12
REMARK SMILES IDX 20 13 2 14 1 15 15 16 17 17 16 18 11 19 13 21
REMARK H PARENT 11 20 13 22
ROOT
ATOM      1  C   UNL     1       2.757  -5.881  -2.544  1.00  0.00     0.033 A 
ATOM      2  C   UNL     1       3.853  -5.111  -2.234  1.00  0.00     0.102 A 
ATOM      3  C   UNL     1       1.475  -5.384  -2.557  1.00  0.00     0.063 A 
ATOM      4  C   UNL     1       3.657  -3.766  -1.920  1.00  0.00     0.315 A 
ATOM      5  C   UNL     1       1.278  -4.039  -2.243  1.00  0.00     0.165 A 
ATOM      6  C   UNL     1       2.369  -3.230  -1.925  1.00  0.00     0.237 A 
ENDROOT
BRANCH   1   7
ATOM      7  C   UNL     1       2.967  -7.322  -2.879  1.00  0.00     0.193 C 
ATOM      8  O   UNL     1       2.726  -8.154  -1.992  1.00  0.00    -0.289 OA
BRANCH   7   9
ATOM      9  C   UNL     1       3.434  -7.758  -4.186  1.00  0.00     0.023 A 
ATOM     10  C   UNL     1       4.239  -6.917  -4.955  1.00  0.00     0.012 A 
ATOM     11  C   UNL     1       3.078  -9.017  -4.669  1.00  0.00     0.012 A 
ATOM     12  C   UNL     1       4.687  -7.336  -6.207  1.00  0.00     0.004 A 
ATOM     13  C   UNL     1       3.526  -9.436  -5.923  1.00  0.00     0.004 A 
ATOM     14  C   UNL     1       4.331  -8.595  -6.692  1.00  0.00    -0.051 A 
ATOM     15  C   UNL     1       4.809  -9.042  -8.031  1.00  0.00     0.044 C 
ENDBRANCH   7   9
ENDBRANCH   1   7
BRANCH   4  16
ATOM     16  N   UNL     1       4.781  -2.957  -1.598  1.00  0.00     0.066 N 
ATOM     17  O   UNL     1       4.860  -2.459  -0.450  1.00  0.00    -0.258 OA
ATOM     18  O   UNL     1       5.660  -2.767  -2.471  1.00  0.00    -0.258 OA
ENDBRANCH   4  16
BRANCH   5  19
ATOM     19  O   UNL     1       0.015  -3.529  -2.252  1.00  0.00    -0.504 OA
ATOM     20  H   UNL     1       0.023  -2.632  -1.878  1.00  0.00     0.293 HD
ENDBRANCH   5  19
BRANCH   6  21
ATOM     21  O   UNL     1       2.164  -1.916  -1.620  1.00  0.00    -0.500 OA
ATOM     22  H   UNL     1       1.221  -1.764  -1.448  1.00  0.00     0.294 HD
ENDBRANCH   6  21
TORSDOF 5
ENDMDL
MODEL 5
REMARK VINA RESULT:    -4.388      3.927      7.119
REMARK INTER + INTRA:          -6.228
REMARK INTER:                  -5.576
REMARK INTRA:                  -0.652
REMARK UNBOUND:                -0.813
REMARK SMILES Cc1ccc(C(=O)c2cc(O)c(O)c([N+](=O)[O-])c2)cc1
REMARK SMILES IDX 8 1 18 2 9 3 14 4 10 5 12 6 6 7 7 8 5 9 4 10 19 11 3 12
REMARK SMILES IDX 20 13 2 14 1 15 15 16 17 17 16 18 11 19 13 21
REMARK H PARENT 11 20 13 22
ROOT
ATOM      1  C   UNL     1       5.029  -7.991  -6.030  1.00  0.00     0.033 A 
ATOM      2  C   UNL     1       4.737  -8.752  -7.138  1.00  0.00     0.102 A 
ATOM      3  C   UNL     1       6.216  -8.096  -5.345  1.00  0.00     0.063 A 
ATOM      4  C   UNL     1       5.687  -9.670  -7.586  1.00  0.00     0.315 A 
ATOM      5  C   UNL     1       7.166  -9.014  -5.792  1.00  0.00     0.165 A 
ATOM      6  C   UNL     1       6.902  -9.801  -6.914  1.00  0.00     0.237 A 
ENDROOT
BRANCH   1   7
ATOM      7  C   UNL     1       4.012  -7.008  -5.550  1.00  0.00     0.193 C 
ATOM      8  O   UNL     1       2.841  -7.171  -5.926  1.00  0.00    -0.289 OA
BRANCH   7   9
ATOM      9  C   UNL     1       4.353  -5.897  -4.676  1.00  0.00     0.023 A 
ATOM     10  C   UNL     1       4.739  -4.673  -5.223  1.00  0.00     0.012 A 
ATOM     11  C   UNL     1       4.293  -6.054  -3.292  1.00  0.00     0.012 A 
ATOM     12  C   UNL     1       5.066  -3.607  -4.385  1.00  0.00     0.004 A 
ATOM     13  C   UNL     1       4.620  -4.988  -2.453  1.00  0.00     0.004 A 
ATOM     14  C   UNL     1       5.006  -3.764  -2.999  1.00  0.00    -0.051 A 
ATOM     15  C   UNL     1       5.357  -2.625  -2.104  1.00  0.00     0.044 C 
ENDBRANCH   7   9
ENDBRANCH   1   7
BRANCH   4  16
ATOM     16  N   UNL     1       5.399 -10.463  -8.731  1.00  0.00     0.066 N 
ATOM     17  O   UNL     1       6.215 -11.354  -9.071  1.00  0.00    -0.258 OA
ATOM     18  O   UNL     1       4.340 -10.250  -9.364  1.00  0.00    -0.258 OA
ENDBRANCH   4  16
BRANCH   5  19
ATOM     19  O   UNL     1       8.349  -9.131  -5.126  1.00  0.00    -0.504 OA
ATOM     20  H   UNL     1       8.348  -9.950  -4.603  1.00  0.00     0.293 HD
ENDBRANCH   5  19
BRANCH   6  21
ATOM     21  O   UNL     1       7.839 -10.695  -7.343  1.00  0.00    -0.500 OA
ATOM     22  H   UNL     1       8.224 -11.155  -6.580  1.00  0.00     0.294 HD
ENDBRANCH   6  21
TORSDOF 5
ENDMDL
MODEL 6
REMARK VINA RESULT:    -4.371      3.942      7.229
REMARK INTER + INTRA:          -6.206
REMARK INTER:                  -5.542
REMARK INTRA:                  -0.664
REMARK UNBOUND:                -0.813
REMARK SMILES Cc1ccc(C(=O)c2cc(O)c(O)c([N+](=O)[O-])c2)cc1
REMARK SMILES IDX 8 1 18 2 9 3 14 4 10 5 12 6 6 7 7 8 5 9 4 10 19 11 3 12
REMARK SMILES IDX 20 13 2 14 1 15 15 16 17 17 16 18 11 19 13 21
REMARK H PARENT 11 20 13 22
ROOT
ATOM      1  C   UNL     1       4.699  -8.028  -6.103  1.00  0.00     0.033 A 
ATOM      2  C   UNL     1       5.780  -8.815  -6.427  1.00  0.00     0.102 A 
ATOM      3  C   UNL     1       3.539  -8.013  -6.841  1.00  0.00     0.063 A 
ATOM      4  C   UNL     1       5.695  -9.634  -7.553  1.00  0.00     0.315 A 
ATOM      5  C   UNL     1       3.454  -8.832  -7.967  1.00  0.00     0.165 A 
ATOM      6  C   UNL     1       4.533  -9.643  -8.323  1.00  0.00     0.237 A 
ENDROOT
BRANCH   1   7
ATOM      7  C   UNL     1       4.790  -7.151  -4.897  1.00  0.00     0.193 C 
ATOM      8  O   UNL     1       5.923  -6.898  -4.462  1.00  0.00    -0.289 OA
BRANCH   7   9
ATOM      9  C   UNL     1       3.614  -6.602  -4.242  1.00  0.00     0.023 A 
ATOM     10  C   UNL     1       2.990  -7.313  -3.217  1.00  0.00     0.012 A 
ATOM     11  C   UNL     1       3.109  -5.363  -4.638  1.00  0.00     0.012 A 
ATOM     12  C   UNL     1       1.862  -6.786  -2.589  1.00  0.00     0.004 A 
ATOM     13  C   UNL     1       1.980  -4.836  -4.010  1.00  0.00     0.004 A 
ATOM     14  C   UNL     1       1.357  -5.547  -2.985  1.00  0.00    -0.051 A 
ATOM     15  C   UNL     1       0.150  -4.985  -2.314  1.00  0.00     0.044 C 
ENDBRANCH   7   9
ENDBRANCH   1   7
BRANCH   4  16
ATOM     16  N   UNL     1       6.805 -10.453  -7.900  1.00  0.00     0.066 N 
ATOM     17  O   UNL     1       6.795 -11.051  -9.003  1.00  0.00    -0.258 OA
ATOM     18  O   UNL     1       7.760 -10.552  -7.095  1.00  0.00    -0.258 OA
ENDBRANCH   4  16
BRANCH   5  19
ATOM     19  O   UNL     1       2.312  -8.831  -8.710  1.00  0.00    -0.504 OA
ATOM     20  H   UNL     1       2.031  -9.746  -8.876  1.00  0.00     0.293 HD
ENDBRANCH   5  19
BRANCH   6  21
ATOM     21  O   UNL     1       4.438 -10.440  -9.427  1.00  0.00    -0.500 OA
ATOM     22  H   UNL     1       4.781  -9.968 -10.201  1.00  0.00     0.294 HD
ENDBRANCH   6  21
TORSDOF 5
ENDMDL
MODEL 7
REMARK VINA RESULT:    -4.344      3.589      7.137
REMARK INTER + INTRA:          -6.174
REMARK INTER:                  -5.236
REMARK INTRA:                  -0.938
REMARK UNBOUND:                -0.813
REMARK SMILES Cc1ccc(C(=O)c2cc(O)c(O)c([N+](=O)[O-])c2)cc1
REMARK SMILES IDX 8 1 18 2 9 3 14 4 10 5 12 6 6 7 7 8 5 9 4 10 19 11 3 12
REMARK SMILES IDX 20 13 2 14 1 15 15 16 17 17 16 18 11 19 13 21
REMARK H PARENT 11 20 13 22
ROOT
ATOM      1  C   UNL     1       4.120  -8.256  -5.519  1.00  0.00     0.033 A 
ATOM      2  C   UNL     1       5.450  -8.607  -5.511  1.00  0.00     0.102 A 
ATOM      3  C   UNL     1       3.284  -8.521  -6.578  1.00  0.00     0.063 A 
ATOM      4  C   UNL     1       5.974  -9.261  -6.626  1.00  0.00     0.315 A 
ATOM      5  C   UNL     1       3.808  -9.175  -7.694  1.00  0.00     0.165 A 
ATOM      6  C   UNL     1       5.153  -9.545  -7.718  1.00  0.00     0.237 A 
ENDROOT
BRANCH   1   7
ATOM      7  C   UNL     1       3.559  -7.555  -4.325  1.00  0.00     0.193 C 
ATOM      8  O   UNL     1       2.635  -8.117  -3.718  1.00  0.00    -0.289 OA
BRANCH   7   9
ATOM      9  C   UNL     1       4.057  -6.266  -3.872  1.00  0.00     0.023 A 
ATOM     10  C   UNL     1       4.351  -5.267  -4.799  1.00  0.00     0.012 A 
ATOM     11  C   UNL     1       4.241  -6.030  -2.510  1.00  0.00     0.012 A 
ATOM     12  C   UNL     1       4.829  -4.031  -4.364  1.00  0.00     0.004 A 
ATOM     13  C   UNL     1       4.718  -4.793  -2.074  1.00  0.00     0.004 A 
ATOM     14  C   UNL     1       5.013  -3.793  -3.001  1.00  0.00    -0.051 A 
ATOM     15  C   UNL     1       5.525  -2.473  -2.537  1.00  0.00     0.044 C 
ENDBRANCH   7   9
ENDBRANCH   1   7
BRANCH   4  16
ATOM     16  N   UNL     1       7.347  -9.631  -6.632  1.00  0.00     0.066 N 
ATOM     17  O   UNL     1       7.695 -10.658  -7.262  1.00  0.00    -0.258 OA
ATOM     18  O   UNL     1       8.168  -8.919  -6.009  1.00  0.00    -0.258 OA
ENDBRANCH   4  16
BRANCH   5  19
ATOM     19  O   UNL     1       2.995  -9.446  -8.753  1.00  0.00    -0.504 OA
ATOM     20  H   UNL     1       2.348 -10.125  -8.500  1.00  0.00     0.293 HD
ENDBRANCH   5  19
BRANCH   6  21
ATOM     21  O   UNL     1       5.654 -10.185  -8.814  1.00  0.00    -0.500 OA
ATOM     22  H   UNL     1       4.964 -10.258  -9.492  1.00  0.00     0.294 HD
ENDBRANCH   6  21
TORSDOF 5
ENDMDL
MODEL 8
REMARK VINA RESULT:    -4.340      3.687      6.535
REMARK INTER + INTRA:          -6.168
REMARK INTER:                  -5.221
REMARK INTRA:                  -0.947
REMARK UNBOUND:                -0.813
REMARK SMILES Cc1ccc(C(=O)c2cc(O)c(O)c([N+](=O)[O-])c2)cc1
REMARK SMILES IDX 8 1 18 2 9 3 14 4 10 5 12 6 6 7 7 8 5 9 4 10 19 11 3 12
REMARK SMILES IDX 20 13 2 14 1 15 15 16 17 17 16 18 11 19 13 21
REMARK H PARENT 11 20 13 22
ROOT
ATOM      1  C   UNL     1       5.255  -7.169  -6.101  1.00  0.00     0.033 A 
ATOM      2  C   UNL     1       4.386  -7.750  -6.994  1.00  0.00     0.102 A 
ATOM      3  C   UNL     1       6.473  -7.719  -5.779  1.00  0.00     0.063 A 
ATOM      4  C   UNL     1       4.757  -8.949  -7.603  1.00  0.00     0.315 A 
ATOM      5  C   UNL     1       6.845  -8.919  -6.387  1.00  0.00     0.165 A 
ATOM      6  C   UNL     1       5.986  -9.534  -7.299  1.00  0.00     0.237 A 
ENDROOT
BRANCH   1   7
ATOM      7  C   UNL     1       4.857  -5.885  -5.449  1.00  0.00     0.193 C 
ATOM      8  O   UNL     1       5.583  -4.899  -5.646  1.00  0.00    -0.289 OA
BRANCH   7   9
ATOM      9  C   UNL     1       3.672  -5.768  -4.614  1.00  0.00     0.023 A 
ATOM     10  C   UNL     1       2.834  -4.660  -4.743  1.00  0.00     0.012 A 
ATOM     11  C   UNL     1       3.373  -6.764  -3.685  1.00  0.00     0.012 A 
ATOM     12  C   UNL     1       1.698  -4.549  -3.943  1.00  0.00     0.004 A 
ATOM     13  C   UNL     1       2.236  -6.653  -2.884  1.00  0.00     0.004 A 
ATOM     14  C   UNL     1       1.398  -5.545  -3.013  1.00  0.00    -0.051 A 
ATOM     15  C   UNL     1       0.184  -5.425  -2.157  1.00  0.00     0.044 C 
ENDBRANCH   7   9
ENDBRANCH   1   7
BRANCH   4  16
ATOM     16  N   UNL     1       3.869  -9.562  -8.529  1.00  0.00     0.066 N 
ATOM     17  O   UNL     1       2.633  -9.412  -8.374  1.00  0.00    -0.258 OA
ATOM     18  O   UNL     1       4.347 -10.232  -9.474  1.00  0.00    -0.258 OA
ENDBRANCH   4  16
BRANCH   5  19
ATOM     19  O   UNL     1       8.049  -9.478  -6.081  1.00  0.00    -0.504 OA
ATOM     20  H   UNL     1       8.752  -9.027  -6.576  1.00  0.00     0.293 HD
ENDBRANCH   5  19
BRANCH   6  21
ATOM     21  O   UNL     1       6.361 -10.707  -7.887  1.00  0.00    -0.500 OA
ATOM     22  H   UNL     1       7.292 -10.655  -8.153  1.00  0.00     0.294 HD
ENDBRANCH   6  21
TORSDOF 5
ENDMDL
MODEL 9
REMARK VINA RESULT:    -4.229      3.750      6.870
REMARK INTER + INTRA:          -6.031
REMARK INTER:                  -5.049
REMARK INTRA:                  -0.982
REMARK UNBOUND:                -0.813
REMARK SMILES Cc1ccc(C(=O)c2cc(O)c(O)c([N+](=O)[O-])c2)cc1
REMARK SMILES IDX 8 1 18 2 9 3 14 4 10 5 12 6 6 7 7 8 5 9 4 10 19 11 3 12
REMARK SMILES IDX 20 13 2 14 1 15 15 16 17 17 16 18 11 19 13 21
REMARK H PARENT 11 20 13 22
ROOT
ATOM      1  C   UNL     1       4.322  -8.253  -5.555  1.00  0.00     0.033 A 
ATOM      2  C   UNL     1       3.602  -8.532  -6.693  1.00  0.00     0.102 A 
ATOM      3  C   UNL     1       5.638  -8.618  -5.397  1.00  0.00     0.063 A 
ATOM      4  C   UNL     1       4.234  -9.214  -7.732  1.00  0.00     0.315 A 
ATOM      5  C   UNL     1       6.271  -9.300  -6.436  1.00  0.00     0.165 A 
ATOM      6  C   UNL     1       5.569  -9.598  -7.605  1.00  0.00     0.237 A 
ENDROOT
BRANCH   1   7
ATOM      7  C   UNL     1       3.645  -7.523  -4.441  1.00  0.00     0.193 C 
ATOM      8  O   UNL     1       2.644  -8.056  -3.937  1.00  0.00    -0.289 OA
BRANCH   7   9
ATOM      9  C   UNL     1       4.119  -6.240  -3.948  1.00  0.00     0.023 A 
ATOM     10  C   UNL     1       4.288  -6.039  -2.578  1.00  0.00     0.012 A 
ATOM     11  C   UNL     1       4.404  -5.211  -4.845  1.00  0.00     0.012 A 
ATOM     12  C   UNL     1       4.743  -4.808  -2.106  1.00  0.00     0.004 A 
ATOM     13  C   UNL     1       4.859  -3.979  -4.372  1.00  0.00     0.004 A 
ATOM     14  C   UNL     1       5.029  -3.777  -3.002  1.00  0.00    -0.051 A 
ATOM     15  C   UNL     1       5.513  -2.462  -2.496  1.00  0.00     0.044 C 
ENDBRANCH   7   9
ENDBRANCH   1   7
BRANCH   4  16
ATOM     16  N   UNL     1       3.502  -9.509  -8.915  1.00  0.00     0.066 N 
ATOM     17  O   UNL     1       3.666 -10.624  -9.467  1.00  0.00    -0.258 OA
ATOM     18  O   UNL     1       2.714  -8.648  -9.371  1.00  0.00    -0.258 OA
ENDBRANCH   4  16
BRANCH   5  19
ATOM     19  O   UNL     1       7.575  -9.669  -6.298  1.00  0.00    -0.504 OA
ATOM     20  H   UNL     1       8.007  -9.096  -5.642  1.00  0.00     0.293 HD
ENDBRANCH   5  19
BRANCH   6  21
ATOM     21  O   UNL     1       6.199 -10.265  -8.615  1.00  0.00    -0.500 OA
ATOM     22  H   UNL     1       6.571 -11.094  -8.276  1.00  0.00     0.294 HD
ENDBRANCH   6  21
TORSDOF 5
ENDMDL
