MODEL 1
REMARK VINA RESULT:    -6.647      0.000      0.000
REMARK INTER + INTRA:          -8.404
REMARK INTER:                  -7.812
REMARK INTRA:                  -0.591
REMARK UNBOUND:                -0.591
REMARK SMILES O=C(O)c1cc(-c2ccc(F)cc2F)ccc1O
REMARK SMILES IDX 6 1 5 2 15 3 4 4 17 5 16 6 7 7 13 8 12 9 8 10 10 11 9 12
REMARK SMILES IDX 14 13 11 14 2 15 1 16 3 17 18 19
REMARK H PARENT 3 18 18 20
ROOT
ATOM      1  C   UNL     1       3.619  -5.500  -3.850  1.00  0.00    -0.014 A 
ATOM      2  C   UNL     1       4.508  -4.575  -3.304  1.00  0.00     0.028 A 
ATOM      3  C   UNL     1       2.266  -5.450  -3.513  1.00  0.00     0.013 A 
ATOM      4  C   UNL     1       4.045  -3.599  -2.422  1.00  0.00     0.102 A 
ATOM      5  C   UNL     1       2.692  -3.549  -2.085  1.00  0.00     0.130 A 
ATOM      6  C   UNL     1       1.802  -4.475  -2.630  1.00  0.00     0.048 A 
ENDROOT
BRANCH   1   7
ATOM      7  C   UNL     1       4.098  -6.514  -4.764  1.00  0.00     0.018 A 
ATOM      8  C   UNL     1       4.959  -6.166  -5.806  1.00  0.00     0.133 A 
ATOM      9  C   UNL     1       5.419  -7.147  -6.686  1.00  0.00     0.079 A 
ATOM     10  C   UNL     1       3.699  -7.840  -4.602  1.00  0.00     0.015 A 
ATOM     11  C   UNL     1       5.019  -8.473  -6.524  1.00  0.00     0.126 A 
ATOM     12  C   UNL     1       4.160  -8.819  -5.482  1.00  0.00     0.040 A 
ATOM     13  F   UNL     1       5.351  -4.896  -5.977  1.00  0.00    -0.206 F 
ATOM     14  F   UNL     1       5.460  -9.414  -7.368  1.00  0.00    -0.207 F 
ENDBRANCH   1   7
BRANCH   4  15
ATOM     15  C   UNL     1       4.989  -2.641  -1.863  1.00  0.00     0.339 C 
ATOM     16  O   UNL     1       5.140  -2.404  -0.662  1.00  0.00    -0.246 OA
BRANCH  15  17
ATOM     17  O   UNL     1       5.717  -2.010  -2.825  1.00  0.00    -0.478 OA
ATOM     18  H   UNL     1       5.966  -2.619  -3.552  1.00  0.00     0.297 HD
ENDBRANCH  15  17
ENDBRANCH   4  15
BRANCH   5  19
ATOM     19  O   UNL     1       2.219  -2.603  -1.224  1.00  0.00    -0.507 OA
ATOM     20  H   UNL     1       1.331  -2.862  -0.925  1.00  0.00     0.293 HD
ENDBRANCH   5  19
TORSDOF 4
ENDMDL
MODEL 2
REMARK VINA RESULT:    -6.637      1.646      3.144
REMARK INTER + INTRA:          -8.392
REMARK INTER:                  -7.803
REMARK INTRA:                  -0.589
REMARK UNBOUND:                -0.591
REMARK SMILES O=C(O)c1cc(-c2ccc(F)cc2F)ccc1O
REMARK SMILES IDX 6 1 5 2 15 3 4 4 17 5 16 6 7 7 13 8 12 9 8 10 10 11 9 12
REMARK SMILES IDX 14 13 11 14 2 15 1 16 3 17 18 19
REMARK H PARENT 3 18 18 20
ROOT
ATOM      1  C   UNL     1       3.642  -5.557  -3.771  1.00  0.00    -0.014 A 
ATOM      2  C   UNL     1       2.289  -5.540  -3.435  1.00  0.00     0.028 A 
ATOM      3  C   UNL     1       4.511  -4.619  -3.213  1.00  0.00     0.013 A 
ATOM      4  C   UNL     1       1.804  -4.586  -2.540  1.00  0.00     0.102 A 
ATOM      5  C   UNL     1       2.673  -3.649  -1.981  1.00  0.00     0.130 A 
ATOM      6  C   UNL     1       4.027  -3.666  -2.318  1.00  0.00     0.048 A 
ENDROOT
BRANCH   1   7
ATOM      7  C   UNL     1       4.146  -6.545  -4.701  1.00  0.00     0.018 A 
ATOM      8  C   UNL     1       3.774  -7.883  -4.570  1.00  0.00     0.133 A 
ATOM      9  C   UNL     1       4.262  -8.833  -5.468  1.00  0.00     0.079 A 
ATOM     10  C   UNL     1       5.004  -6.156  -5.729  1.00  0.00     0.015 A 
ATOM     11  C   UNL     1       5.121  -8.444  -6.496  1.00  0.00     0.126 A 
ATOM     12  C   UNL     1       5.492  -7.106  -6.627  1.00  0.00     0.040 A 
ATOM     13  F   UNL     1       2.952  -8.274  -3.586  1.00  0.00    -0.206 F 
ATOM     14  F   UNL     1       5.590  -9.355  -7.358  1.00  0.00    -0.207 F 
ENDBRANCH   1   7
BRANCH   4  15
ATOM     15  C   UNL     1       0.388  -4.586  -2.202  1.00  0.00     0.339 C 
ATOM     16  O   UNL     1      -0.364  -3.611  -2.276  1.00  0.00    -0.246 OA
BRANCH  15  17
ATOM     17  O   UNL     1      -0.045  -5.807  -1.782  1.00  0.00    -0.478 OA
ATOM     18  H   UNL     1       0.514  -6.164  -1.061  1.00  0.00     0.297 HD
ENDBRANCH  15  17
ENDBRANCH   4  15
BRANCH   5  19
ATOM     19  O   UNL     1       2.219  -2.710  -1.104  1.00  0.00    -0.507 OA
ATOM     20  H   UNL     1       2.461  -2.976  -0.200  1.00  0.00     0.293 HD
ENDBRANCH   5  19
TORSDOF 4
ENDMDL
MODEL 3
REMARK VINA RESULT:    -5.324      1.672      2.896
REMARK INTER + INTRA:          -6.849
REMARK INTER:                  -6.089
REMARK INTRA:                  -0.760
REMARK UNBOUND:                -0.591
REMARK SMILES O=C(O)c1cc(-c2ccc(F)cc2F)ccc1O
REMARK SMILES IDX 6 1 5 2 15 3 4 4 17 5 16 6 7 7 13 8 12 9 8 10 10 11 9 12
REMARK SMILES IDX 14 13 11 14 2 15 1 16 3 17 18 19
REMARK H PARENT 3 18 18 20
ROOT
ATOM      1  C   UNL     1       3.914  -5.833  -4.276  1.00  0.00    -0.014 A 
ATOM      2  C   UNL     1       2.618  -5.916  -3.769  1.00  0.00     0.028 A 
ATOM      3  C   UNL     1       4.720  -4.741  -3.954  1.00  0.00     0.013 A 
ATOM      4  C   UNL     1       2.127  -4.908  -2.938  1.00  0.00     0.102 A 
ATOM      5  C   UNL     1       2.934  -3.817  -2.616  1.00  0.00     0.130 A 
ATOM      6  C   UNL     1       4.231  -3.733  -3.124  1.00  0.00     0.048 A 
ENDROOT
BRANCH   1   7
ATOM      7  C   UNL     1       4.423  -6.877  -5.139  1.00  0.00     0.018 A 
ATOM      8  C   UNL     1       3.682  -7.296  -6.244  1.00  0.00     0.133 A 
ATOM      9  C   UNL     1       4.176  -8.304  -7.073  1.00  0.00     0.079 A 
ATOM     10  C   UNL     1       5.658  -7.464  -4.864  1.00  0.00     0.015 A 
ATOM     11  C   UNL     1       5.410  -8.891  -6.797  1.00  0.00     0.126 A 
ATOM     12  C   UNL     1       6.151  -8.471  -5.693  1.00  0.00     0.040 A 
ATOM     13  F   UNL     1       2.492  -6.745  -6.521  1.00  0.00    -0.206 F 
ATOM     14  F   UNL     1       5.886  -9.858  -7.593  1.00  0.00    -0.207 F 
ENDBRANCH   1   7
BRANCH   4  15
ATOM     15  C   UNL     1       0.771  -5.015  -2.418  1.00  0.00     0.339 C 
ATOM     16  O   UNL     1       0.231  -6.058  -2.043  1.00  0.00    -0.246 OA
BRANCH  15  17
ATOM     17  O   UNL     1       0.135  -3.813  -2.380  1.00  0.00    -0.478 OA
ATOM     18  H   UNL     1       0.763  -3.065  -2.462  1.00  0.00     0.297 HD
ENDBRANCH  15  17
ENDBRANCH   4  15
BRANCH   5  19
ATOM     19  O   UNL     1       2.474  -2.822  -1.806  1.00  0.00    -0.507 OA
ATOM     20  H   UNL     1       1.659  -3.122  -1.366  1.00  0.00     0.293 HD
ENDBRANCH   5  19
TORSDOF 4
ENDMDL
MODEL 4
REMARK VINA RESULT:    -5.234      4.191      6.466
REMARK INTER + INTRA:          -6.743
REMARK INTER:                  -5.671
REMARK INTRA:                  -1.072
REMARK UNBOUND:                -0.591
REMARK SMILES O=C(O)c1cc(-c2ccc(F)cc2F)ccc1O
REMARK SMILES IDX 6 1 5 2 15 3 4 4 17 5 16 6 7 7 13 8 12 9 8 10 10 11 9 12
REMARK SMILES IDX 14 13 11 14 2 15 1 16 3 17 18 19
REMARK H PARENT 3 18 18 20
ROOT
ATOM      1  C   UNL     1       4.565  -7.402  -5.454  1.00  0.00    -0.014 A 
ATOM      2  C   UNL     1       5.840  -7.914  -5.217  1.00  0.00     0.028 A 
ATOM      3  C   UNL     1       3.822  -7.859  -6.543  1.00  0.00     0.013 A 
ATOM      4  C   UNL     1       6.373  -8.883  -6.068  1.00  0.00     0.102 A 
ATOM      5  C   UNL     1       5.630  -9.339  -7.156  1.00  0.00     0.130 A 
ATOM      6  C   UNL     1       4.353  -8.827  -7.394  1.00  0.00     0.048 A 
ENDROOT
BRANCH   1   7
ATOM      7  C   UNL     1       4.012  -6.396  -4.573  1.00  0.00     0.018 A 
ATOM      8  C   UNL     1       3.167  -6.770  -3.527  1.00  0.00     0.133 A 
ATOM      9  C   UNL     1       2.636  -5.796  -2.680  1.00  0.00     0.079 A 
ATOM     10  C   UNL     1       4.326  -5.052  -4.770  1.00  0.00     0.015 A 
ATOM     11  C   UNL     1       2.950  -4.452  -2.878  1.00  0.00     0.126 A 
ATOM     12  C   UNL     1       3.796  -4.080  -3.923  1.00  0.00     0.040 A 
ATOM     13  F   UNL     1       2.853  -8.057  -3.325  1.00  0.00    -0.206 F 
ATOM     14  F   UNL     1       2.441  -3.518  -2.065  1.00  0.00    -0.207 F 
ENDBRANCH   1   7
BRANCH   4  15
ATOM     15  C   UNL     1       7.706  -9.405  -5.802  1.00  0.00     0.339 C 
ATOM     16  O   UNL     1       8.390 -10.054  -6.597  1.00  0.00    -0.246 OA
BRANCH  15  17
ATOM     17  O   UNL     1       8.144  -9.097  -4.551  1.00  0.00    -0.478 OA
ATOM     18  H   UNL     1       7.407  -8.827  -3.963  1.00  0.00     0.297 HD
ENDBRANCH  15  17
ENDBRANCH   4  15
BRANCH   5  19
ATOM     19  O   UNL     1       6.132 -10.286  -7.999  1.00  0.00    -0.507 OA
ATOM     20  H   UNL     1       6.603  -9.844  -8.727  1.00  0.00     0.293 HD
ENDBRANCH   5  19
TORSDOF 4
ENDMDL
MODEL 5
REMARK VINA RESULT:    -5.225      4.548      6.889
REMARK INTER + INTRA:          -6.733
REMARK INTER:                  -5.658
REMARK INTRA:                  -1.075
REMARK UNBOUND:                -0.591
REMARK SMILES O=C(O)c1cc(-c2ccc(F)cc2F)ccc1O
REMARK SMILES IDX 6 1 5 2 15 3 4 4 17 5 16 6 7 7 13 8 12 9 8 10 10 11 9 12
REMARK SMILES IDX 14 13 11 14 2 15 1 16 3 17 18 19
REMARK H PARENT 3 18 18 20
ROOT
ATOM      1  C   UNL     1       4.437  -7.391  -5.527  1.00  0.00    -0.014 A 
ATOM      2  C   UNL     1       3.613  -7.754  -6.591  1.00  0.00     0.028 A 
ATOM      3  C   UNL     1       5.699  -7.969  -5.393  1.00  0.00     0.013 A 
ATOM      4  C   UNL     1       4.051  -8.697  -7.523  1.00  0.00     0.102 A 
ATOM      5  C   UNL     1       5.313  -9.275  -7.388  1.00  0.00     0.130 A 
ATOM      6  C   UNL     1       6.138  -8.911  -6.323  1.00  0.00     0.048 A 
ENDROOT
BRANCH   1   7
ATOM      7  C   UNL     1       3.983  -6.415  -4.560  1.00  0.00     0.018 A 
ATOM      8  C   UNL     1       3.195  -6.813  -3.479  1.00  0.00     0.133 A 
ATOM      9  C   UNL     1       2.759  -5.869  -2.549  1.00  0.00     0.079 A 
ATOM     10  C   UNL     1       4.335  -5.074  -4.710  1.00  0.00     0.015 A 
ATOM     11  C   UNL     1       3.111  -4.528  -2.700  1.00  0.00     0.126 A 
ATOM     12  C   UNL     1       3.899  -4.131  -3.780  1.00  0.00     0.040 A 
ATOM     13  F   UNL     1       2.846  -8.098  -3.322  1.00  0.00    -0.206 F 
ATOM     14  F   UNL     1       2.693  -3.621  -1.808  1.00  0.00    -0.207 F 
ENDBRANCH   1   7
BRANCH   4  15
ATOM     15  C   UNL     1       3.176  -9.062  -8.628  1.00  0.00     0.339 C 
ATOM     16  O   UNL     1       3.356 -10.009  -9.397  1.00  0.00    -0.246 OA
BRANCH  15  17
ATOM     17  O   UNL     1       2.102  -8.233  -8.735  1.00  0.00    -0.478 OA
ATOM     18  H   UNL     1       2.284  -7.476  -9.330  1.00  0.00     0.297 HD
ENDBRANCH  15  17
ENDBRANCH   4  15
BRANCH   5  19
ATOM     19  O   UNL     1       5.760 -10.197  -8.288  1.00  0.00    -0.507 OA
ATOM     20  H   UNL     1       6.028 -11.001  -7.811  1.00  0.00     0.293 HD
ENDBRANCH   5  19
TORSDOF 4
ENDMDL
MODEL 6
REMARK VINA RESULT:    -4.127      8.474      9.975
REMARK INTER + INTRA:          -5.442
REMARK INTER:                  -4.459
REMARK INTRA:                  -0.983
REMARK UNBOUND:                -0.591
REMARK SMILES O=C(O)c1cc(-c2ccc(F)cc2F)ccc1O
REMARK SMILES IDX 6 1 5 2 15 3 4 4 17 5 16 6 7 7 13 8 12 9 8 10 10 11 9 12
REMARK SMILES IDX 14 13 11 14 2 15 1 16 3 17 18 19
REMARK H PARENT 3 18 18 20
ROOT
ATOM      1  C   UNL     1       0.434   1.292  -0.220  1.00  0.00    -0.014 A 
ATOM      2  C   UNL     1      -0.921   1.431  -0.516  1.00  0.00     0.028 A 
ATOM      3  C   UNL     1       1.385   1.997  -0.958  1.00  0.00     0.013 A 
ATOM      4  C   UNL     1      -1.327   2.275  -1.550  1.00  0.00     0.102 A 
ATOM      5  C   UNL     1      -0.376   2.980  -2.288  1.00  0.00     0.130 A 
ATOM      6  C   UNL     1       0.980   2.841  -1.992  1.00  0.00     0.048 A 
ENDROOT
BRANCH   1   7
ATOM      7  C   UNL     1       0.856   0.415   0.851  1.00  0.00     0.018 A 
ATOM      8  C   UNL     1       0.598   0.758   2.179  1.00  0.00     0.133 A 
ATOM      9  C   UNL     1       1.006  -0.090   3.209  1.00  0.00     0.079 A 
ATOM     10  C   UNL     1       1.521  -0.774   0.554  1.00  0.00     0.015 A 
ATOM     11  C   UNL     1       1.672  -1.279   2.912  1.00  0.00     0.126 A 
ATOM     12  C   UNL     1       1.928  -1.621   1.584  1.00  0.00     0.040 A 
ATOM     13  F   UNL     1      -0.038   1.899   2.482  1.00  0.00    -0.206 F 
ATOM     14  F   UNL     1       2.064  -2.093   3.900  1.00  0.00    -0.207 F 
ENDBRANCH   1   7
BRANCH   4  15
ATOM     15  C   UNL     1      -2.748   2.406  -1.843  1.00  0.00     0.339 C 
ATOM     16  O   UNL     1      -3.223   2.787  -2.916  1.00  0.00    -0.246 OA
BRANCH  15  17
ATOM     17  O   UNL     1      -3.529   2.055  -0.786  1.00  0.00    -0.478 OA
ATOM     18  H   UNL     1      -3.045   2.122   0.064  1.00  0.00     0.297 HD
ENDBRANCH  15  17
ENDBRANCH   4  15
BRANCH   5  19
ATOM     19  O   UNL     1      -0.752   3.810  -3.302  1.00  0.00    -0.507 OA
ATOM     20  H   UNL     1      -0.698   4.731  -2.994  1.00  0.00     0.293 HD
ENDBRANCH   5  19
TORSDOF 4
ENDMDL
MODEL 7
REMARK VINA RESULT:    -3.943      6.223      8.593
REMARK INTER + INTRA:          -5.225
REMARK INTER:                  -4.705
REMARK INTRA:                  -0.520
REMARK UNBOUND:                -0.591
REMARK SMILES O=C(O)c1cc(-c2ccc(F)cc2F)ccc1O
REMARK SMILES IDX 6 1 5 2 15 3 4 4 17 5 16 6 7 7 13 8 12 9 8 10 10 11 9 12
REMARK SMILES IDX 14 13 11 14 2 15 1 16 3 17 18 19
REMARK H PARENT 3 18 18 20
ROOT
ATOM      1  C   UNL     1       3.915  -9.284  -8.642  1.00  0.00    -0.014 A 
ATOM      2  C   UNL     1       4.403 -10.556  -8.940  1.00  0.00     0.028 A 
ATOM      3  C   UNL     1       3.082  -8.627  -9.547  1.00  0.00     0.013 A 
ATOM      4  C   UNL     1       4.058 -11.171 -10.144  1.00  0.00     0.102 A 
ATOM      5  C   UNL     1       3.224 -10.514 -11.049  1.00  0.00     0.130 A 
ATOM      6  C   UNL     1       2.736  -9.241 -10.750  1.00  0.00     0.048 A 
ENDROOT
BRANCH   1   7
ATOM      7  C   UNL     1       4.274  -8.645  -7.394  1.00  0.00     0.018 A 
ATOM      8  C   UNL     1       5.528  -8.872  -6.826  1.00  0.00     0.133 A 
ATOM      9  C   UNL     1       5.869  -8.254  -5.623  1.00  0.00     0.079 A 
ATOM     10  C   UNL     1       3.364  -7.799  -6.761  1.00  0.00     0.015 A 
ATOM     11  C   UNL     1       4.959  -7.409  -4.989  1.00  0.00     0.126 A 
ATOM     12  C   UNL     1       3.706  -7.181  -5.559  1.00  0.00     0.040 A 
ATOM     13  F   UNL     1       6.413  -9.684  -7.420  1.00  0.00    -0.206 F 
ATOM     14  F   UNL     1       5.286  -6.815  -3.834  1.00  0.00    -0.207 F 
ENDBRANCH   1   7
BRANCH   4  15
ATOM     15  C   UNL     1       4.578 -12.500 -10.436  1.00  0.00     0.339 C 
ATOM     16  O   UNL     1       4.530 -13.059 -11.534  1.00  0.00    -0.246 OA
BRANCH  15  17
ATOM     17  O   UNL     1       5.142 -13.087  -9.346  1.00  0.00    -0.478 OA
ATOM     18  H   UNL     1       5.979 -13.546  -9.571  1.00  0.00     0.297 HD
ENDBRANCH  15  17
ENDBRANCH   4  15
BRANCH   5  19
ATOM     19  O   UNL     1       2.875 -11.098 -12.230  1.00  0.00    -0.507 OA
ATOM     20  H   UNL     1       3.154 -12.030 -12.218  1.00  0.00     0.293 HD
ENDBRANCH   5  19
TORSDOF 4
ENDMDL
MODEL 8
REMARK VINA RESULT:    -3.941     10.153     12.557
REMARK INTER + INTRA:          -5.224
REMARK INTER:                  -4.227
REMARK INTRA:                  -0.997
REMARK UNBOUND:                -0.591
REMARK SMILES O=C(O)c1cc(-c2ccc(F)cc2F)ccc1O
REMARK SMILES IDX 6 1 5 2 15 3 4 4 17 5 16 6 7 7 13 8 12 9 8 10 10 11 9 12
REMARK SMILES IDX 14 13 11 14 2 15 1 16 3 17 18 19
REMARK H PARENT 3 18 18 20
ROOT
ATOM      1  C   UNL     1       4.092 -12.223 -13.417  1.00  0.00    -0.014 A 
ATOM      2  C   UNL     1       4.782 -12.924 -12.430  1.00  0.00     0.028 A 
ATOM      3  C   UNL     1       3.521 -12.908 -14.490  1.00  0.00     0.013 A 
ATOM      4  C   UNL     1       4.903 -14.312 -12.514  1.00  0.00     0.102 A 
ATOM      5  C   UNL     1       4.332 -14.997 -13.586  1.00  0.00     0.130 A 
ATOM      6  C   UNL     1       3.641 -14.295 -14.575  1.00  0.00     0.048 A 
ENDROOT
BRANCH   1   7
ATOM      7  C   UNL     1       3.967 -10.784 -13.331  1.00  0.00     0.018 A 
ATOM      8  C   UNL     1       3.144 -10.208 -12.363  1.00  0.00     0.133 A 
ATOM      9  C   UNL     1       3.027  -8.820 -12.284  1.00  0.00     0.079 A 
ATOM     10  C   UNL     1       4.674  -9.972 -14.218  1.00  0.00     0.015 A 
ATOM     11  C   UNL     1       3.733  -8.009 -13.171  1.00  0.00     0.126 A 
ATOM     12  C   UNL     1       4.557  -8.585 -14.138  1.00  0.00     0.040 A 
ATOM     13  F   UNL     1       2.456 -10.974 -11.505  1.00  0.00    -0.206 F 
ATOM     14  F   UNL     1       3.621  -6.676 -13.096  1.00  0.00    -0.207 F 
ENDBRANCH   1   7
BRANCH   4  15
ATOM     15  C   UNL     1       5.627 -15.026 -11.472  1.00  0.00     0.339 C 
ATOM     16  O   UNL     1       5.974 -16.208 -11.526  1.00  0.00    -0.246 OA
BRANCH  15  17
ATOM     17  O   UNL     1       5.898 -14.238 -10.396  1.00  0.00    -0.478 OA
ATOM     18  H   UNL     1       5.514 -14.603  -9.571  1.00  0.00     0.297 HD
ENDBRANCH  15  17
ENDBRANCH   4  15
BRANCH   5  19
ATOM     19  O   UNL     1       4.438 -16.352 -13.687  1.00  0.00    -0.507 OA
ATOM     20  H   UNL     1       3.765 -16.766 -13.119  1.00  0.00     0.293 HD
ENDBRANCH   5  19
TORSDOF 4
ENDMDL
MODEL 9
REMARK VINA RESULT:    -3.934      5.885      8.334
REMARK INTER + INTRA:          -5.215
REMARK INTER:                  -4.706
REMARK INTRA:                  -0.509
REMARK UNBOUND:                -0.591
REMARK SMILES O=C(O)c1cc(-c2ccc(F)cc2F)ccc1O
REMARK SMILES IDX 6 1 5 2 15 3 4 4 17 5 16 6 7 7 13 8 12 9 8 10 10 11 9 12
REMARK SMILES IDX 14 13 11 14 2 15 1 16 3 17 18 19
REMARK H PARENT 3 18 18 20
ROOT
ATOM      1  C   UNL     1       7.261  -9.750  -6.285  1.00  0.00    -0.014 A 
ATOM      2  C   UNL     1       7.625 -10.192  -7.556  1.00  0.00     0.028 A 
ATOM      3  C   UNL     1       7.976 -10.179  -5.166  1.00  0.00     0.013 A 
ATOM      4  C   UNL     1       8.705 -11.062  -7.710  1.00  0.00     0.102 A 
ATOM      5  C   UNL     1       9.419 -11.491  -6.592  1.00  0.00     0.130 A 
ATOM      6  C   UNL     1       9.055 -11.049  -5.319  1.00  0.00     0.048 A 
ENDROOT
BRANCH   1   7
ATOM      7  C   UNL     1       6.141  -8.848  -6.125  1.00  0.00     0.018 A 
ATOM      8  C   UNL     1       5.049  -8.926  -6.991  1.00  0.00     0.133 A 
ATOM      9  C   UNL     1       3.972  -8.054  -6.833  1.00  0.00     0.079 A 
ATOM     10  C   UNL     1       6.153  -7.901  -5.101  1.00  0.00     0.015 A 
ATOM     11  C   UNL     1       3.985  -7.107  -5.810  1.00  0.00     0.126 A 
ATOM     12  C   UNL     1       5.076  -7.031  -4.944  1.00  0.00     0.040 A 
ATOM     13  F   UNL     1       5.023  -9.829  -7.981  1.00  0.00    -0.206 F 
ATOM     14  F   UNL     1       2.951  -6.270  -5.657  1.00  0.00    -0.207 F 
ENDBRANCH   1   7
BRANCH   4  15
ATOM     15  C   UNL     1       9.070 -11.511  -9.047  1.00  0.00     0.339 C 
ATOM     16  O   UNL     1       9.785 -12.483  -9.302  1.00  0.00    -0.246 OA
BRANCH  15  17
ATOM     17  O   UNL     1       8.527 -10.732 -10.021  1.00  0.00    -0.478 OA
ATOM     18  H   UNL     1       8.044  -9.965  -9.648  1.00  0.00     0.297 HD
ENDBRANCH  15  17
ENDBRANCH   4  15
BRANCH   5  19
ATOM     19  O   UNL     1      10.477 -12.341  -6.720  1.00  0.00    -0.507 OA
ATOM     20  H   UNL     1      10.350 -13.099  -6.124  1.00  0.00     0.293 HD
ENDBRANCH   5  19
TORSDOF 4
ENDMDL
