MODEL 1
REMARK VINA RESULT:    -6.876      0.000      0.000
REMARK INTER + INTRA:          -8.691
REMARK INTER:                  -8.082
REMARK INTRA:                  -0.609
REMARK UNBOUND:                -0.609
REMARK SMILES O=C(O)c1cc(-c2ccc(F)cc2F)ccc1O
REMARK SMILES IDX 6 1 5 2 15 3 4 4 17 5 16 6 7 7 13 8 12 9 8 10 10 11 9 12
REMARK SMILES IDX 14 13 11 14 2 15 1 16 3 17 18 19
REMARK H PARENT 3 18 18 20
ROOT
ATOM      1  C   UNL     1       8.067  -5.304  -2.067  1.00  0.00    -0.014 A 
ATOM      2  C   UNL     1       7.811  -4.404  -1.034  1.00  0.00     0.028 A 
ATOM      3  C   UNL     1       7.207  -5.372  -3.163  1.00  0.00     0.013 A 
ATOM      4  C   UNL     1       6.693  -3.571  -1.096  1.00  0.00     0.102 A 
ATOM      5  C   UNL     1       5.833  -3.639  -2.192  1.00  0.00     0.130 A 
ATOM      6  C   UNL     1       6.090  -4.540  -3.226  1.00  0.00     0.048 A 
ENDROOT
BRANCH   1   7
ATOM      7  C   UNL     1       9.225  -6.170  -2.003  1.00  0.00     0.018 A 
ATOM      8  C   UNL     1      10.474  -5.646  -1.666  1.00  0.00     0.133 A 
ATOM      9  C   UNL     1      11.588  -6.484  -1.606  1.00  0.00     0.079 A 
ATOM     10  C   UNL     1       9.091  -7.531  -2.278  1.00  0.00     0.015 A 
ATOM     11  C   UNL     1      11.453  -7.844  -1.882  1.00  0.00     0.126 A 
ATOM     12  C   UNL     1      10.204  -8.367  -2.217  1.00  0.00     0.040 A 
ATOM     13  F   UNL     1      10.620  -4.340  -1.402  1.00  0.00    -0.206 F 
ATOM     14  F   UNL     1      12.522  -8.649  -1.824  1.00  0.00    -0.207 F 
ENDBRANCH   1   7
BRANCH   4  15
ATOM     15  C   UNL     1       6.443  -2.637  -0.007  1.00  0.00     0.339 C 
ATOM     16  O   UNL     1       5.386  -2.539   0.621  1.00  0.00    -0.246 OA
BRANCH  15  17
ATOM     17  O   UNL     1       7.524  -1.855   0.264  1.00  0.00    -0.478 OA
ATOM     18  H   UNL     1       8.206  -1.920  -0.437  1.00  0.00     0.297 HD
ENDBRANCH  15  17
ENDBRANCH   4  15
BRANCH   5  19
ATOM     19  O   UNL     1       4.736  -2.833  -2.272  1.00  0.00    -0.507 OA
ATOM     20  H   UNL     1       4.032  -3.302  -2.753  1.00  0.00     0.293 HD
ENDBRANCH   5  19
TORSDOF 4
ENDMDL
MODEL 2
REMARK VINA RESULT:    -6.867      1.669      3.167
REMARK INTER + INTRA:          -8.680
REMARK INTER:                  -8.073
REMARK INTRA:                  -0.607
REMARK UNBOUND:                -0.609
REMARK SMILES O=C(O)c1cc(-c2ccc(F)cc2F)ccc1O
REMARK SMILES IDX 6 1 5 2 15 3 4 4 17 5 16 6 7 7 13 8 12 9 8 10 10 11 9 12
REMARK SMILES IDX 14 13 11 14 2 15 1 16 3 17 18 19
REMARK H PARENT 3 18 18 20
ROOT
ATOM      1  C   UNL     1       8.013  -5.371  -2.057  1.00  0.00    -0.014 A 
ATOM      2  C   UNL     1       7.174  -5.472  -3.166  1.00  0.00     0.028 A 
ATOM      3  C   UNL     1       7.728  -4.450  -1.048  1.00  0.00     0.013 A 
ATOM      4  C   UNL     1       6.049  -4.652  -3.268  1.00  0.00     0.102 A 
ATOM      5  C   UNL     1       5.764  -3.732  -2.259  1.00  0.00     0.130 A 
ATOM      6  C   UNL     1       6.604  -3.631  -1.149  1.00  0.00     0.048 A 
ENDROOT
BRANCH   1   7
ATOM      7  C   UNL     1       9.180  -6.220  -1.951  1.00  0.00     0.018 A 
ATOM      8  C   UNL     1       9.076  -7.588  -2.204  1.00  0.00     0.133 A 
ATOM      9  C   UNL     1      10.204  -8.403  -2.101  1.00  0.00     0.079 A 
ATOM     10  C   UNL     1      10.410  -5.667  -1.596  1.00  0.00     0.015 A 
ATOM     11  C   UNL     1      11.434  -7.850  -1.746  1.00  0.00     0.126 A 
ATOM     12  C   UNL     1      11.537  -6.482  -1.494  1.00  0.00     0.040 A 
ATOM     13  F   UNL     1       7.901  -8.135  -2.544  1.00  0.00    -0.206 F 
ATOM     14  F   UNL     1      12.517  -8.631  -1.646  1.00  0.00    -0.207 F 
ENDBRANCH   1   7
BRANCH   4  15
ATOM     15  C   UNL     1       5.186  -4.774  -4.434  1.00  0.00     0.339 C 
ATOM     16  O   UNL     1       4.837  -3.843  -5.164  1.00  0.00    -0.246 OA
BRANCH  15  17
ATOM     17  O   UNL     1       4.786  -6.056  -4.652  1.00  0.00    -0.478 OA
ATOM     18  H   UNL     1       3.820  -6.116  -4.806  1.00  0.00     0.297 HD
ENDBRANCH  15  17
ENDBRANCH   4  15
BRANCH   5  19
ATOM     19  O   UNL     1       4.670  -2.922  -2.339  1.00  0.00    -0.507 OA
ATOM     20  H   UNL     1       4.015  -3.209  -1.680  1.00  0.00     0.293 HD
ENDBRANCH   5  19
TORSDOF 4
ENDMDL
MODEL 3
REMARK VINA RESULT:    -6.859      1.247      2.726
REMARK INTER + INTRA:          -8.672
REMARK INTER:                  -8.070
REMARK INTRA:                  -0.601
REMARK UNBOUND:                -0.609
REMARK SMILES O=C(O)c1cc(-c2ccc(F)cc2F)ccc1O
REMARK SMILES IDX 6 1 5 2 15 3 4 4 17 5 16 6 7 7 13 8 12 9 8 10 10 11 9 12
REMARK SMILES IDX 14 13 11 14 2 15 1 16 3 17 18 19
REMARK H PARENT 3 18 18 20
ROOT
ATOM      1  C   UNL     1       8.027  -5.327  -2.051  1.00  0.00    -0.014 A 
ATOM      2  C   UNL     1       7.188  -5.442  -3.159  1.00  0.00     0.028 A 
ATOM      3  C   UNL     1       7.732  -4.407  -1.045  1.00  0.00     0.013 A 
ATOM      4  C   UNL     1       6.055  -4.635  -3.262  1.00  0.00     0.102 A 
ATOM      5  C   UNL     1       5.760  -3.714  -2.257  1.00  0.00     0.130 A 
ATOM      6  C   UNL     1       6.599  -3.600  -1.148  1.00  0.00     0.048 A 
ENDROOT
BRANCH   1   7
ATOM      7  C   UNL     1       9.204  -6.163  -1.944  1.00  0.00     0.018 A 
ATOM      8  C   UNL     1      10.435  -5.598  -1.609  1.00  0.00     0.133 A 
ATOM      9  C   UNL     1      11.567  -6.407  -1.507  1.00  0.00     0.079 A 
ATOM     10  C   UNL     1       9.104  -7.535  -2.174  1.00  0.00     0.015 A 
ATOM     11  C   UNL     1      11.468  -7.779  -1.739  1.00  0.00     0.126 A 
ATOM     12  C   UNL     1      10.236  -8.342  -2.071  1.00  0.00     0.040 A 
ATOM     13  F   UNL     1      10.548  -4.281  -1.387  1.00  0.00    -0.206 F 
ATOM     14  F   UNL     1      12.554  -8.556  -1.641  1.00  0.00    -0.207 F 
ENDBRANCH   1   7
BRANCH   4  15
ATOM     15  C   UNL     1       5.191  -4.770  -4.428  1.00  0.00     0.339 C 
ATOM     16  O   UNL     1       4.839  -3.846  -5.165  1.00  0.00    -0.246 OA
BRANCH  15  17
ATOM     17  O   UNL     1       4.797  -6.056  -4.635  1.00  0.00    -0.478 OA
ATOM     18  H   UNL     1       5.510  -6.694  -4.422  1.00  0.00     0.297 HD
ENDBRANCH  15  17
ENDBRANCH   4  15
BRANCH   5  19
ATOM     19  O   UNL     1       4.657  -2.918  -2.338  1.00  0.00    -0.507 OA
ATOM     20  H   UNL     1       4.086  -3.239  -3.058  1.00  0.00     0.293 HD
ENDBRANCH   5  19
TORSDOF 4
ENDMDL
MODEL 4
REMARK VINA RESULT:    -5.144      8.764     10.998
REMARK INTER + INTRA:          -6.656
REMARK INTER:                  -5.591
REMARK INTRA:                  -1.064
REMARK UNBOUND:                -0.609
REMARK SMILES O=C(O)c1cc(-c2ccc(F)cc2F)ccc1O
REMARK SMILES IDX 6 1 5 2 15 3 4 4 17 5 16 6 7 7 13 8 12 9 8 10 10 11 9 12
REMARK SMILES IDX 14 13 11 14 2 15 1 16 3 17 18 19
REMARK H PARENT 3 18 18 20
ROOT
ATOM      1  C   UNL     1      12.825 -12.235   3.374  1.00  0.00    -0.014 A 
ATOM      2  C   UNL     1      13.281 -12.121   4.687  1.00  0.00     0.028 A 
ATOM      3  C   UNL     1      12.492 -13.488   2.858  1.00  0.00     0.013 A 
ATOM      4  C   UNL     1      13.404 -13.259   5.485  1.00  0.00     0.102 A 
ATOM      5  C   UNL     1      13.071 -14.511   4.969  1.00  0.00     0.130 A 
ATOM      6  C   UNL     1      12.615 -14.626   3.655  1.00  0.00     0.048 A 
ENDROOT
BRANCH   1   7
ATOM      7  C   UNL     1      12.698 -11.056   2.546  1.00  0.00     0.018 A 
ATOM      8  C   UNL     1      13.815 -10.538   1.888  1.00  0.00     0.133 A 
ATOM      9  C   UNL     1      13.688  -9.400   1.091  1.00  0.00     0.079 A 
ATOM     10  C   UNL     1      11.456 -10.437   2.404  1.00  0.00     0.015 A 
ATOM     11  C   UNL     1      12.446  -8.781   0.950  1.00  0.00     0.126 A 
ATOM     12  C   UNL     1      11.330  -9.301   1.607  1.00  0.00     0.040 A 
ATOM     13  F   UNL     1      15.016 -11.119   2.016  1.00  0.00    -0.206 F 
ATOM     14  F   UNL     1      12.324  -7.690   0.185  1.00  0.00    -0.207 F 
ENDBRANCH   1   7
BRANCH   4  15
ATOM     15  C   UNL     1      13.882 -13.118   6.853  1.00  0.00     0.339 C 
ATOM     16  O   UNL     1      14.303 -14.036   7.560  1.00  0.00    -0.246 OA
BRANCH  15  17
ATOM     17  O   UNL     1      13.819 -11.832   7.294  1.00  0.00    -0.478 OA
ATOM     18  H   UNL     1      14.707 -11.422   7.350  1.00  0.00     0.297 HD
ENDBRANCH  15  17
ENDBRANCH   4  15
BRANCH   5  19
ATOM     19  O   UNL     1      13.184 -15.635   5.732  1.00  0.00    -0.507 OA
ATOM     20  H   UNL     1      13.422 -16.385   5.159  1.00  0.00     0.293 HD
ENDBRANCH   5  19
TORSDOF 4
ENDMDL
MODEL 5
REMARK VINA RESULT:    -5.129      4.584      6.921
REMARK INTER + INTRA:          -6.638
REMARK INTER:                  -5.567
REMARK INTRA:                  -1.071
REMARK UNBOUND:                -0.609
REMARK SMILES O=C(O)c1cc(-c2ccc(F)cc2F)ccc1O
REMARK SMILES IDX 6 1 5 2 15 3 4 4 17 5 16 6 7 7 13 8 12 9 8 10 10 11 9 12
REMARK SMILES IDX 14 13 11 14 2 15 1 16 3 17 18 19
REMARK H PARENT 3 18 18 20
ROOT
ATOM      1  C   UNL     1      10.206  -6.992  -2.019  1.00  0.00    -0.014 A 
ATOM      2  C   UNL     1      10.870  -7.305  -3.205  1.00  0.00     0.028 A 
ATOM      3  C   UNL     1      10.687  -7.474  -0.802  1.00  0.00     0.013 A 
ATOM      4  C   UNL     1      12.015  -8.101  -3.174  1.00  0.00     0.102 A 
ATOM      5  C   UNL     1      12.496  -8.584  -1.957  1.00  0.00     0.130 A 
ATOM      6  C   UNL     1      11.832  -8.270  -0.771  1.00  0.00     0.048 A 
ENDROOT
BRANCH   1   7
ATOM      7  C   UNL     1       9.017  -6.167  -2.050  1.00  0.00     0.018 A 
ATOM      8  C   UNL     1       7.773  -6.741  -2.310  1.00  0.00     0.133 A 
ATOM      9  C   UNL     1       6.629  -5.942  -2.339  1.00  0.00     0.079 A 
ATOM     10  C   UNL     1       9.118  -4.795  -1.818  1.00  0.00     0.015 A 
ATOM     11  C   UNL     1       6.730  -4.571  -2.108  1.00  0.00     0.126 A 
ATOM     12  C   UNL     1       7.975  -3.998  -1.848  1.00  0.00     0.040 A 
ATOM     13  F   UNL     1       7.659  -8.058  -2.537  1.00  0.00    -0.206 F 
ATOM     14  F   UNL     1       5.633  -3.804  -2.136  1.00  0.00    -0.207 F 
ENDBRANCH   1   7
BRANCH   4  15
ATOM     15  C   UNL     1      12.694  -8.416  -4.423  1.00  0.00     0.339 C 
ATOM     16  O   UNL     1      13.509  -9.328  -4.582  1.00  0.00    -0.246 OA
BRANCH  15  17
ATOM     17  O   UNL     1      12.331  -7.582  -5.435  1.00  0.00    -0.478 OA
ATOM     18  H   UNL     1      12.235  -8.060  -6.286  1.00  0.00     0.297 HD
ENDBRANCH  15  17
ENDBRANCH   4  15
BRANCH   5  19
ATOM     19  O   UNL     1      13.613  -9.363  -1.906  1.00  0.00    -0.507 OA
ATOM     20  H   UNL     1      14.383  -8.801  -1.706  1.00  0.00     0.293 HD
ENDBRANCH   5  19
TORSDOF 4
ENDMDL
MODEL 6
REMARK VINA RESULT:    -5.110      4.224      6.500
REMARK INTER + INTRA:          -6.616
REMARK INTER:                  -5.547
REMARK INTRA:                  -1.069
REMARK UNBOUND:                -0.609
REMARK SMILES O=C(O)c1cc(-c2ccc(F)cc2F)ccc1O
REMARK SMILES IDX 6 1 5 2 15 3 4 4 17 5 16 6 7 7 13 8 12 9 8 10 10 11 9 12
REMARK SMILES IDX 14 13 11 14 2 15 1 16 3 17 18 19
REMARK H PARENT 3 18 18 20
ROOT
ATOM      1  C   UNL     1      10.170  -6.984  -1.972  1.00  0.00    -0.014 A 
ATOM      2  C   UNL     1      10.622  -7.431  -0.731  1.00  0.00     0.028 A 
ATOM      3  C   UNL     1      10.866  -7.324  -3.132  1.00  0.00     0.013 A 
ATOM      4  C   UNL     1      11.770  -8.219  -0.649  1.00  0.00     0.102 A 
ATOM      5  C   UNL     1      12.466  -8.560  -1.809  1.00  0.00     0.130 A 
ATOM      6  C   UNL     1      12.014  -8.112  -3.051  1.00  0.00     0.048 A 
ENDROOT
BRANCH   1   7
ATOM      7  C   UNL     1       8.980  -6.165  -2.058  1.00  0.00     0.018 A 
ATOM      8  C   UNL     1       7.747  -6.751  -2.346  1.00  0.00     0.133 A 
ATOM      9  C   UNL     1       6.601  -5.958  -2.428  1.00  0.00     0.079 A 
ATOM     10  C   UNL     1       9.068  -4.789  -1.851  1.00  0.00     0.015 A 
ATOM     11  C   UNL     1       6.689  -4.582  -2.222  1.00  0.00     0.126 A 
ATOM     12  C   UNL     1       7.923  -3.998  -1.933  1.00  0.00     0.040 A 
ATOM     13  F   UNL     1       7.646  -8.072  -2.551  1.00  0.00    -0.206 F 
ATOM     14  F   UNL     1       5.591  -3.820  -2.301  1.00  0.00    -0.207 F 
ENDBRANCH   1   7
BRANCH   4  15
ATOM     15  C   UNL     1      12.225  -8.676   0.657  1.00  0.00     0.339 C 
ATOM     16  O   UNL     1      13.355  -9.100   0.910  1.00  0.00    -0.246 OA
BRANCH  15  17
ATOM     17  O   UNL     1      11.253  -8.587   1.605  1.00  0.00    -0.478 OA
ATOM     18  H   UNL     1      10.667  -9.373   1.600  1.00  0.00     0.297 HD
ENDBRANCH  15  17
ENDBRANCH   4  15
BRANCH   5  19
ATOM     19  O   UNL     1      13.590  -9.329  -1.750  1.00  0.00    -0.507 OA
ATOM     20  H   UNL     1      14.229  -9.008  -2.410  1.00  0.00     0.293 HD
ENDBRANCH   5  19
TORSDOF 4
ENDMDL
MODEL 7
REMARK VINA RESULT:    -4.998      1.691      2.905
REMARK INTER + INTRA:          -6.484
REMARK INTER:                  -5.720
REMARK INTRA:                  -0.764
REMARK UNBOUND:                -0.609
REMARK SMILES O=C(O)c1cc(-c2ccc(F)cc2F)ccc1O
REMARK SMILES IDX 6 1 5 2 15 3 4 4 17 5 16 6 7 7 13 8 12 9 8 10 10 11 9 12
REMARK SMILES IDX 14 13 11 14 2 15 1 16 3 17 18 19
REMARK H PARENT 3 18 18 20
ROOT
ATOM      1  C   UNL     1       8.735  -5.624  -2.217  1.00  0.00    -0.014 A 
ATOM      2  C   UNL     1       7.723  -5.812  -3.158  1.00  0.00     0.028 A 
ATOM      3  C   UNL     1       8.659  -4.565  -1.313  1.00  0.00     0.013 A 
ATOM      4  C   UNL     1       6.634  -4.940  -3.196  1.00  0.00     0.102 A 
ATOM      5  C   UNL     1       6.558  -3.881  -2.292  1.00  0.00     0.130 A 
ATOM      6  C   UNL     1       7.571  -3.693  -1.350  1.00  0.00     0.048 A 
ENDROOT
BRANCH   1   7
ATOM      7  C   UNL     1       9.865  -6.527  -2.179  1.00  0.00     0.018 A 
ATOM      8  C   UNL     1      10.242  -7.126  -0.976  1.00  0.00     0.133 A 
ATOM      9  C   UNL     1      11.333  -7.995  -0.943  1.00  0.00     0.079 A 
ATOM     10  C   UNL     1      10.576  -6.799  -3.347  1.00  0.00     0.015 A 
ATOM     11  C   UNL     1      12.044  -8.267  -2.111  1.00  0.00     0.126 A 
ATOM     12  C   UNL     1      11.665  -7.669  -3.314  1.00  0.00     0.040 A 
ATOM     13  F   UNL     1       9.571  -6.873   0.156  1.00  0.00    -0.206 F 
ATOM     14  F   UNL     1      13.091  -9.101  -2.081  1.00  0.00    -0.207 F 
ENDBRANCH   1   7
BRANCH   4  15
ATOM     15  C   UNL     1       5.587  -5.154  -4.185  1.00  0.00     0.339 C 
ATOM     16  O   UNL     1       5.085  -6.244  -4.469  1.00  0.00    -0.246 OA
BRANCH  15  17
ATOM     17  O   UNL     1       5.201  -3.997  -4.789  1.00  0.00    -0.478 OA
ATOM     18  H   UNL     1       5.944  -3.567  -5.262  1.00  0.00     0.297 HD
ENDBRANCH  15  17
ENDBRANCH   4  15
BRANCH   5  19
ATOM     19  O   UNL     1       5.502  -3.018  -2.311  1.00  0.00    -0.507 OA
ATOM     20  H   UNL     1       5.189  -2.921  -3.227  1.00  0.00     0.293 HD
ENDBRANCH   5  19
TORSDOF 4
ENDMDL
MODEL 8
REMARK VINA RESULT:    -4.555      2.149      3.357
REMARK INTER + INTRA:          -5.964
REMARK INTER:                  -4.971
REMARK INTRA:                  -0.993
REMARK UNBOUND:                -0.609
REMARK SMILES O=C(O)c1cc(-c2ccc(F)cc2F)ccc1O
REMARK SMILES IDX 6 1 5 2 15 3 4 4 17 5 16 6 7 7 13 8 12 9 8 10 10 11 9 12
REMARK SMILES IDX 14 13 11 14 2 15 1 16 3 17 18 19
REMARK H PARENT 3 18 18 20
ROOT
ATOM      1  C   UNL     1       9.557  -6.122  -1.902  1.00  0.00    -0.014 A 
ATOM      2  C   UNL     1       8.407  -6.617  -2.516  1.00  0.00     0.028 A 
ATOM      3  C   UNL     1       9.681  -4.755  -1.654  1.00  0.00     0.013 A 
ATOM      4  C   UNL     1       7.381  -5.746  -2.883  1.00  0.00     0.102 A 
ATOM      5  C   UNL     1       7.506  -4.379  -2.636  1.00  0.00     0.130 A 
ATOM      6  C   UNL     1       8.656  -3.883  -2.021  1.00  0.00     0.048 A 
ENDROOT
BRANCH   1   7
ATOM      7  C   UNL     1      10.622  -7.025  -1.522  1.00  0.00     0.018 A 
ATOM      8  C   UNL     1      11.422  -7.615  -2.501  1.00  0.00     0.133 A 
ATOM      9  C   UNL     1      12.448  -8.486  -2.130  1.00  0.00     0.079 A 
ATOM     10  C   UNL     1      10.848  -7.303  -0.174  1.00  0.00     0.015 A 
ATOM     11  C   UNL     1      12.673  -8.764  -0.783  1.00  0.00     0.126 A 
ATOM     12  C   UNL     1      11.874  -8.172   0.195  1.00  0.00     0.040 A 
ATOM     13  F   UNL     1      11.216  -7.361  -3.801  1.00  0.00    -0.206 F 
ATOM     14  F   UNL     1      13.658  -9.599  -0.426  1.00  0.00    -0.207 F 
ENDBRANCH   1   7
BRANCH   4  15
ATOM     15  C   UNL     1       6.189  -6.284  -3.523  1.00  0.00     0.339 C 
ATOM     16  O   UNL     1       5.373  -5.629  -4.177  1.00  0.00    -0.246 OA
BRANCH  15  17
ATOM     17  O   UNL     1       6.054  -7.623  -3.326  1.00  0.00    -0.478 OA
ATOM     18  H   UNL     1       6.863  -8.018  -2.938  1.00  0.00     0.297 HD
ENDBRANCH  15  17
ENDBRANCH   4  15
BRANCH   5  19
ATOM     19  O   UNL     1       6.515  -3.511  -2.986  1.00  0.00    -0.507 OA
ATOM     20  H   UNL     1       6.661  -3.215  -3.901  1.00  0.00     0.293 HD
ENDBRANCH   5  19
TORSDOF 4
ENDMDL
MODEL 9
REMARK VINA RESULT:    -4.499      1.720      2.271
REMARK INTER + INTRA:          -5.898
REMARK INTER:                  -4.889
REMARK INTRA:                  -1.009
REMARK UNBOUND:                -0.609
REMARK SMILES O=C(O)c1cc(-c2ccc(F)cc2F)ccc1O
REMARK SMILES IDX 6 1 5 2 15 3 4 4 17 5 16 6 7 7 13 8 12 9 8 10 10 11 9 12
REMARK SMILES IDX 14 13 11 14 2 15 1 16 3 17 18 19
REMARK H PARENT 3 18 18 20
ROOT
ATOM      1  C   UNL     1       9.299  -6.629  -2.075  1.00  0.00    -0.014 A 
ATOM      2  C   UNL     1       9.386  -5.330  -1.576  1.00  0.00     0.028 A 
ATOM      3  C   UNL     1       8.051  -7.190  -2.348  1.00  0.00     0.013 A 
ATOM      4  C   UNL     1       8.225  -4.591  -1.348  1.00  0.00     0.102 A 
ATOM      5  C   UNL     1       6.977  -5.151  -1.621  1.00  0.00     0.130 A 
ATOM      6  C   UNL     1       6.890  -6.451  -2.121  1.00  0.00     0.048 A 
ENDROOT
BRANCH   1   7
ATOM      7  C   UNL     1      10.503  -7.397  -2.309  1.00  0.00     0.018 A 
ATOM      8  C   UNL     1      11.218  -7.924  -1.233  1.00  0.00     0.133 A 
ATOM      9  C   UNL     1      12.379  -8.664  -1.464  1.00  0.00     0.079 A 
ATOM     10  C   UNL     1      10.947  -7.610  -3.614  1.00  0.00     0.015 A 
ATOM     11  C   UNL     1      12.823  -8.876  -2.768  1.00  0.00     0.126 A 
ATOM     12  C   UNL     1      12.107  -8.350  -3.843  1.00  0.00     0.040 A 
ATOM     13  F   UNL     1      10.806  -7.726   0.027  1.00  0.00    -0.206 F 
ATOM     14  F   UNL     1      13.937  -9.586  -2.991  1.00  0.00    -0.207 F 
ENDBRANCH   1   7
BRANCH   4  15
ATOM     15  C   UNL     1       8.337  -3.235  -0.827  1.00  0.00     0.339 C 
ATOM     16  O   UNL     1       7.459  -2.637  -0.200  1.00  0.00    -0.246 OA
BRANCH  15  17
ATOM     17  O   UNL     1       9.544  -2.671  -1.104  1.00  0.00    -0.478 OA
ATOM     18  H   UNL     1       9.650  -1.802  -0.664  1.00  0.00     0.297 HD
ENDBRANCH  15  17
ENDBRANCH   4  15
BRANCH   5  19
ATOM     19  O   UNL     1       5.831  -4.445  -1.407  1.00  0.00    -0.507 OA
ATOM     20  H   UNL     1       5.390  -4.290  -2.260  1.00  0.00     0.293 HD
ENDBRANCH   5  19
TORSDOF 4
ENDMDL
