MODEL 1
REMARK VINA RESULT:    -4.718      0.000      0.000
REMARK INTER + INTRA:          -6.626
REMARK INTER:                  -5.821
REMARK INTRA:                  -0.804
REMARK UNBOUND:                -0.804
REMARK SMILES Cc1ccc(C(=O)c2cc(O)c(O)c([N+](=O)[O-])c2)cc1
REMARK SMILES IDX 8 1 18 2 9 3 14 4 10 5 12 6 6 7 7 8 5 9 4 10 19 11 3 12
REMARK SMILES IDX 20 13 2 14 1 15 15 16 17 17 16 18 11 19 13 21
REMARK H PARENT 11 20 13 22
ROOT
ATOM      1  C   UNL     1       8.168  -5.022  -2.942  1.00  0.00     0.033 A 
ATOM      2  C   UNL     1       8.069  -4.334  -1.755  1.00  0.00     0.102 A 
ATOM      3  C   UNL     1       7.171  -5.026  -3.889  1.00  0.00     0.063 A 
ATOM      4  C   UNL     1       6.905  -3.608  -1.501  1.00  0.00     0.315 A 
ATOM      5  C   UNL     1       6.007  -4.301  -3.634  1.00  0.00     0.165 A 
ATOM      6  C   UNL     1       5.874  -3.591  -2.440  1.00  0.00     0.237 A 
ENDROOT
BRANCH   1   7
ATOM      7  C   UNL     1       9.414  -5.800  -3.215  1.00  0.00     0.193 C 
ATOM      8  O   UNL     1       9.844  -5.797  -4.379  1.00  0.00    -0.289 OA
BRANCH   7   9
ATOM      9  C   UNL     1      10.115  -6.539  -2.177  1.00  0.00     0.023 A 
ATOM     10  C   UNL     1       9.819  -7.885  -1.958  1.00  0.00     0.012 A 
ATOM     11  C   UNL     1      11.083  -5.902  -1.400  1.00  0.00     0.012 A 
ATOM     12  C   UNL     1      10.492  -8.593  -0.963  1.00  0.00     0.004 A 
ATOM     13  C   UNL     1      11.756  -6.611  -0.404  1.00  0.00     0.004 A 
ATOM     14  C   UNL     1      11.460  -7.957  -0.185  1.00  0.00    -0.051 A 
ATOM     15  C   UNL     1      12.178  -8.714   0.880  1.00  0.00     0.044 C 
ENDBRANCH   7   9
ENDBRANCH   1   7
BRANCH   4  16
ATOM     16  N   UNL     1       6.788  -2.892  -0.278  1.00  0.00     0.066 N 
ATOM     17  O   UNL     1       7.791  -2.282   0.166  1.00  0.00    -0.258 OA
ATOM     18  O   UNL     1       5.686  -2.889   0.319  1.00  0.00    -0.258 OA
ENDBRANCH   4  16
BRANCH   5  19
ATOM     19  O   UNL     1       5.008  -4.292  -4.561  1.00  0.00    -0.504 OA
ATOM     20  H   UNL     1       4.159  -4.115  -4.123  1.00  0.00     0.293 HD
ENDBRANCH   5  19
BRANCH   6  21
ATOM     21  O   UNL     1       4.731  -2.884  -2.203  1.00  0.00    -0.500 OA
ATOM     22  H   UNL     1       4.833  -2.361  -1.392  1.00  0.00     0.294 HD
ENDBRANCH   6  21
TORSDOF 5
ENDMDL
MODEL 2
REMARK VINA RESULT:    -4.687      2.051      3.553
REMARK INTER + INTRA:          -6.587
REMARK INTER:                  -5.780
REMARK INTRA:                  -0.807
REMARK UNBOUND:                -0.804
REMARK SMILES Cc1ccc(C(=O)c2cc(O)c(O)c([N+](=O)[O-])c2)cc1
REMARK SMILES IDX 8 1 18 2 9 3 14 4 10 5 12 6 6 7 7 8 5 9 4 10 19 11 3 12
REMARK SMILES IDX 20 13 2 14 1 15 15 16 17 17 16 18 11 19 13 21
REMARK H PARENT 11 20 13 22
ROOT
ATOM      1  C   UNL     1       7.694  -5.471  -1.220  1.00  0.00     0.033 A 
ATOM      2  C   UNL     1       7.178  -5.624  -2.486  1.00  0.00     0.102 A 
ATOM      3  C   UNL     1       7.262  -4.498  -0.350  1.00  0.00     0.063 A 
ATOM      4  C   UNL     1       6.171  -4.754  -2.905  1.00  0.00     0.315 A 
ATOM      5  C   UNL     1       6.256  -3.627  -0.770  1.00  0.00     0.165 A 
ATOM      6  C   UNL     1       5.710  -3.756  -2.048  1.00  0.00     0.237 A 
ENDROOT
BRANCH   1   7
ATOM      7  C   UNL     1       8.772  -6.403  -0.771  1.00  0.00     0.193 C 
ATOM      8  O   UNL     1       8.786  -6.720   0.428  1.00  0.00    -0.289 OA
BRANCH   7   9
ATOM      9  C   UNL     1       9.776  -6.930  -1.681  1.00  0.00     0.023 A 
ATOM     10  C   UNL     1      10.990  -6.262  -1.843  1.00  0.00     0.012 A 
ATOM     11  C   UNL     1       9.526  -8.104  -2.391  1.00  0.00     0.012 A 
ATOM     12  C   UNL     1      11.953  -6.768  -2.716  1.00  0.00     0.004 A 
ATOM     13  C   UNL     1      10.489  -8.611  -3.264  1.00  0.00     0.004 A 
ATOM     14  C   UNL     1      11.703  -7.943  -3.427  1.00  0.00    -0.051 A 
ATOM     15  C   UNL     1      12.732  -8.483  -4.360  1.00  0.00     0.044 C 
ENDBRANCH   7   9
ENDBRANCH   1   7
BRANCH   4  16
ATOM     16  N   UNL     1       5.627  -4.900  -4.211  1.00  0.00     0.066 N 
ATOM     17  O   UNL     1       5.203  -3.882  -4.808  1.00  0.00    -0.258 OA
ATOM     18  O   UNL     1       5.589  -6.042  -4.727  1.00  0.00    -0.258 OA
ENDBRANCH   4  16
BRANCH   5  19
ATOM     19  O   UNL     1       5.814  -2.657   0.079  1.00  0.00    -0.504 OA
ATOM     20  H   UNL     1       5.849  -1.794  -0.367  1.00  0.00     0.293 HD
ENDBRANCH   5  19
BRANCH   6  21
ATOM     21  O   UNL     1       4.725  -2.899  -2.447  1.00  0.00    -0.500 OA
ATOM     22  H   UNL     1       4.366  -3.189  -3.300  1.00  0.00     0.294 HD
ENDBRANCH   6  21
TORSDOF 5
ENDMDL
MODEL 3
REMARK VINA RESULT:    -4.305      1.659      3.130
REMARK INTER + INTRA:          -6.116
REMARK INTER:                  -5.417
REMARK INTRA:                  -0.699
REMARK UNBOUND:                -0.804
REMARK SMILES Cc1ccc(C(=O)c2cc(O)c(O)c([N+](=O)[O-])c2)cc1
REMARK SMILES IDX 8 1 18 2 9 3 14 4 10 5 12 6 6 7 7 8 5 9 4 10 19 11 3 12
REMARK SMILES IDX 20 13 2 14 1 15 15 16 17 17 16 18 11 19 13 21
REMARK H PARENT 11 20 13 22
ROOT
ATOM      1  C   UNL     1       8.200  -3.847  -1.931  1.00  0.00     0.033 A 
ATOM      2  C   UNL     1       7.598  -4.156  -3.128  1.00  0.00     0.102 A 
ATOM      3  C   UNL     1       7.501  -3.395  -0.837  1.00  0.00     0.063 A 
ATOM      4  C   UNL     1       6.215  -4.005  -3.237  1.00  0.00     0.315 A 
ATOM      5  C   UNL     1       6.118  -3.243  -0.947  1.00  0.00     0.165 A 
ATOM      6  C   UNL     1       5.475  -3.549  -2.147  1.00  0.00     0.237 A 
ENDROOT
BRANCH   1   7
ATOM      7  C   UNL     1       9.681  -4.009  -1.814  1.00  0.00     0.193 C 
ATOM      8  O   UNL     1      10.378  -2.995  -1.974  1.00  0.00    -0.289 OA
BRANCH   7   9
ATOM      9  C   UNL     1      10.305  -5.289  -1.523  1.00  0.00     0.023 A 
ATOM     10  C   UNL     1      11.516  -5.335  -0.832  1.00  0.00     0.012 A 
ATOM     11  C   UNL     1       9.693  -6.473  -1.936  1.00  0.00     0.012 A 
ATOM     12  C   UNL     1      12.114  -6.564  -0.553  1.00  0.00     0.004 A 
ATOM     13  C   UNL     1      10.291  -7.703  -1.657  1.00  0.00     0.004 A 
ATOM     14  C   UNL     1      11.502  -7.748  -0.966  1.00  0.00    -0.051 A 
ATOM     15  C   UNL     1      12.142  -9.061  -0.669  1.00  0.00     0.044 C 
ENDBRANCH   7   9
ENDBRANCH   1   7
BRANCH   4  16
ATOM     16  N   UNL     1       5.578  -4.321  -4.468  1.00  0.00     0.066 N 
ATOM     17  O   UNL     1       4.801  -3.480  -4.982  1.00  0.00    -0.258 OA
ATOM     18  O   UNL     1       5.811  -5.429  -5.004  1.00  0.00    -0.258 OA
ENDBRANCH   4  16
BRANCH   5  19
ATOM     19  O   UNL     1       5.408  -2.796   0.127  1.00  0.00    -0.504 OA
ATOM     20  H   UNL     1       6.019  -2.522   0.831  1.00  0.00     0.293 HD
ENDBRANCH   5  19
BRANCH   6  21
ATOM     21  O   UNL     1       4.122  -3.397  -2.241  1.00  0.00    -0.500 OA
ATOM     22  H   UNL     1       3.686  -4.246  -2.072  1.00  0.00     0.294 HD
ENDBRANCH   6  21
TORSDOF 5
ENDMDL
MODEL 4
REMARK VINA RESULT:    -4.285      1.808      2.333
REMARK INTER + INTRA:          -6.091
REMARK INTER:                  -5.478
REMARK INTRA:                  -0.614
REMARK UNBOUND:                -0.804
REMARK SMILES Cc1ccc(C(=O)c2cc(O)c(O)c([N+](=O)[O-])c2)cc1
REMARK SMILES IDX 8 1 18 2 9 3 14 4 10 5 12 6 6 7 7 8 5 9 4 10 19 11 3 12
REMARK SMILES IDX 20 13 2 14 1 15 15 16 17 17 16 18 11 19 13 21
REMARK H PARENT 11 20 13 22
ROOT
ATOM      1  C   UNL     1       6.683  -5.920  -2.290  1.00  0.00     0.033 A 
ATOM      2  C   UNL     1       6.743  -5.132  -1.164  1.00  0.00     0.102 A 
ATOM      3  C   UNL     1       6.109  -5.499  -3.466  1.00  0.00     0.063 A 
ATOM      4  C   UNL     1       6.198  -3.850  -1.217  1.00  0.00     0.315 A 
ATOM      5  C   UNL     1       5.563  -4.217  -3.519  1.00  0.00     0.165 A 
ATOM      6  C   UNL     1       5.608  -3.391  -2.395  1.00  0.00     0.237 A 
ENDROOT
BRANCH   1   7
ATOM      7  C   UNL     1       7.268  -7.294  -2.232  1.00  0.00     0.193 C 
ATOM      8  O   UNL     1       6.484  -8.238  -2.052  1.00  0.00    -0.289 OA
BRANCH   7   9
ATOM      9  C   UNL     1       8.693  -7.542  -2.379  1.00  0.00     0.023 A 
ATOM     10  C   UNL     1       9.614  -6.576  -1.975  1.00  0.00     0.012 A 
ATOM     11  C   UNL     1       9.139  -8.747  -2.923  1.00  0.00     0.012 A 
ATOM     12  C   UNL     1      10.981  -6.814  -2.116  1.00  0.00     0.004 A 
ATOM     13  C   UNL     1      10.506  -8.986  -3.064  1.00  0.00     0.004 A 
ATOM     14  C   UNL     1      11.428  -8.019  -2.660  1.00  0.00    -0.051 A 
ATOM     15  C   UNL     1      12.889  -8.273  -2.811  1.00  0.00     0.044 C 
ENDBRANCH   7   9
ENDBRANCH   1   7
BRANCH   4  16
ATOM     16  N   UNL     1       6.252  -3.024  -0.061  1.00  0.00     0.066 N 
ATOM     17  O   UNL     1       5.178  -2.630   0.453  1.00  0.00    -0.258 OA
ATOM     18  O   UNL     1       7.371  -2.714   0.410  1.00  0.00    -0.258 OA
ENDBRANCH   4  16
BRANCH   5  19
ATOM     19  O   UNL     1       4.990  -3.782  -4.677  1.00  0.00    -0.504 OA
ATOM     20  H   UNL     1       4.805  -2.830  -4.611  1.00  0.00     0.293 HD
ENDBRANCH   5  19
BRANCH   6  21
ATOM     21  O   UNL     1       5.071  -2.138  -2.460  1.00  0.00    -0.500 OA
ATOM     22  H   UNL     1       5.744  -1.482  -2.223  1.00  0.00     0.294 HD
ENDBRANCH   6  21
TORSDOF 5
ENDMDL
MODEL 5
REMARK VINA RESULT:    -4.267      3.574      7.107
REMARK INTER + INTRA:          -6.070
REMARK INTER:                  -5.120
REMARK INTRA:                  -0.950
REMARK UNBOUND:                -0.804
REMARK SMILES Cc1ccc(C(=O)c2cc(O)c(O)c([N+](=O)[O-])c2)cc1
REMARK SMILES IDX 8 1 18 2 9 3 14 4 10 5 12 6 6 7 7 8 5 9 4 10 19 11 3 12
REMARK SMILES IDX 20 13 2 14 1 15 15 16 17 17 16 18 11 19 13 21
REMARK H PARENT 11 20 13 22
ROOT
ATOM      1  C   UNL     1      10.994  -6.586  -1.479  1.00  0.00     0.033 A 
ATOM      2  C   UNL     1      11.513  -7.152  -2.621  1.00  0.00     0.102 A 
ATOM      3  C   UNL     1      11.267  -7.063  -0.219  1.00  0.00     0.063 A 
ATOM      4  C   UNL     1      12.354  -8.257  -2.494  1.00  0.00     0.315 A 
ATOM      5  C   UNL     1      12.107  -8.170  -0.092  1.00  0.00     0.165 A 
ATOM      6  C   UNL     1      12.652  -8.766  -1.230  1.00  0.00     0.237 A 
ENDROOT
BRANCH   1   7
ATOM      7  C   UNL     1      10.093  -5.402  -1.615  1.00  0.00     0.193 C 
ATOM      8  O   UNL     1      10.446  -4.352  -1.058  1.00  0.00    -0.289 OA
BRANCH   7   9
ATOM      9  C   UNL     1       8.847  -5.452  -2.363  1.00  0.00     0.023 A 
ATOM     10  C   UNL     1       7.990  -6.544  -2.220  1.00  0.00     0.012 A 
ATOM     11  C   UNL     1       8.508  -4.409  -3.224  1.00  0.00     0.012 A 
ATOM     12  C   UNL     1       6.795  -6.591  -2.937  1.00  0.00     0.004 A 
ATOM     13  C   UNL     1       7.312  -4.455  -3.942  1.00  0.00     0.004 A 
ATOM     14  C   UNL     1       6.456  -5.547  -3.799  1.00  0.00    -0.051 A 
ATOM     15  C   UNL     1       5.179  -5.599  -4.566  1.00  0.00     0.044 C 
ENDBRANCH   7   9
ENDBRANCH   1   7
BRANCH   4  16
ATOM     16  N   UNL     1      12.899  -8.853  -3.665  1.00  0.00     0.066 N 
ATOM     17  O   UNL     1      14.040  -9.372  -3.606  1.00  0.00    -0.258 OA
ATOM     18  O   UNL     1      12.224  -8.842  -4.720  1.00  0.00    -0.258 OA
ENDBRANCH   4  16
BRANCH   5  19
ATOM     19  O   UNL     1      12.389  -8.656   1.149  1.00  0.00    -0.504 OA
ATOM     20  H   UNL     1      12.252  -7.958   1.811  1.00  0.00     0.293 HD
ENDBRANCH   5  19
BRANCH   6  21
ATOM     21  O   UNL     1      13.473  -9.847  -1.093  1.00  0.00    -0.500 OA
ATOM     22  H   UNL     1      14.291  -9.701  -1.594  1.00  0.00     0.294 HD
ENDBRANCH   6  21
TORSDOF 5
ENDMDL
MODEL 6
REMARK VINA RESULT:    -4.231      3.699      6.526
REMARK INTER + INTRA:          -6.025
REMARK INTER:                  -5.071
REMARK INTRA:                  -0.954
REMARK UNBOUND:                -0.804
REMARK SMILES Cc1ccc(C(=O)c2cc(O)c(O)c([N+](=O)[O-])c2)cc1
REMARK SMILES IDX 8 1 18 2 9 3 14 4 10 5 12 6 6 7 7 8 5 9 4 10 19 11 3 12
REMARK SMILES IDX 20 13 2 14 1 15 15 16 17 17 16 18 11 19 13 21
REMARK H PARENT 11 20 13 22
ROOT
ATOM      1  C   UNL     1      10.150  -7.820  -2.256  1.00  0.00     0.033 A 
ATOM      2  C   UNL     1      10.714  -8.070  -1.027  1.00  0.00     0.102 A 
ATOM      3  C   UNL     1      10.816  -8.029  -3.440  1.00  0.00     0.063 A 
ATOM      4  C   UNL     1      12.020  -8.558  -0.980  1.00  0.00     0.315 A 
ATOM      5  C   UNL     1      12.123  -8.517  -3.393  1.00  0.00     0.165 A 
ATOM      6  C   UNL     1      12.725  -8.782  -2.162  1.00  0.00     0.237 A 
ENDROOT
BRANCH   1   7
ATOM      7  C   UNL     1       8.751  -7.297  -2.307  1.00  0.00     0.193 C 
ATOM      8  O   UNL     1       7.912  -7.975  -2.920  1.00  0.00    -0.289 OA
BRANCH   7   9
ATOM      9  C   UNL     1       8.362  -6.048  -1.673  1.00  0.00     0.023 A 
ATOM     10  C   UNL     1       7.188  -5.982  -0.923  1.00  0.00     0.012 A 
ATOM     11  C   UNL     1       9.164  -4.915  -1.814  1.00  0.00     0.012 A 
ATOM     12  C   UNL     1       6.815  -4.784  -0.314  1.00  0.00     0.004 A 
ATOM     13  C   UNL     1       8.792  -3.716  -1.205  1.00  0.00     0.004 A 
ATOM     14  C   UNL     1       7.617  -3.650  -0.455  1.00  0.00    -0.051 A 
ATOM     15  C   UNL     1       7.218  -2.369   0.195  1.00  0.00     0.044 C 
ENDBRANCH   7   9
ENDBRANCH   1   7
BRANCH   4  16
ATOM     16  N   UNL     1      12.617  -8.822   0.284  1.00  0.00     0.066 N 
ATOM     17  O   UNL     1      13.453  -9.753   0.376  1.00  0.00    -0.258 OA
ATOM     18  O   UNL     1      12.291  -8.117   1.267  1.00  0.00    -0.258 OA
ENDBRANCH   4  16
BRANCH   5  19
ATOM     19  O   UNL     1      12.799  -8.731  -4.557  1.00  0.00    -0.504 OA
ATOM     20  H   UNL     1      13.188  -7.896  -4.865  1.00  0.00     0.293 HD
ENDBRANCH   5  19
BRANCH   6  21
ATOM     21  O   UNL     1      14.003  -9.259  -2.129  1.00  0.00    -0.500 OA
ATOM     22  H   UNL     1      14.023 -10.161  -2.485  1.00  0.00     0.294 HD
ENDBRANCH   6  21
TORSDOF 5
ENDMDL
MODEL 7
REMARK VINA RESULT:    -4.147      3.746      6.809
REMARK INTER + INTRA:          -5.921
REMARK INTER:                  -4.930
REMARK INTRA:                  -0.991
REMARK UNBOUND:                -0.804
REMARK SMILES Cc1ccc(C(=O)c2cc(O)c(O)c([N+](=O)[O-])c2)cc1
REMARK SMILES IDX 8 1 18 2 9 3 14 4 10 5 12 6 6 7 7 8 5 9 4 10 19 11 3 12
REMARK SMILES IDX 20 13 2 14 1 15 15 16 17 17 16 18 11 19 13 21
REMARK H PARENT 11 20 13 22
ROOT
ATOM      1  C   UNL     1      11.015  -6.774  -1.716  1.00  0.00     0.033 A 
ATOM      2  C   UNL     1      11.333  -7.434  -0.551  1.00  0.00     0.102 A 
ATOM      3  C   UNL     1      11.538  -7.123  -2.938  1.00  0.00     0.063 A 
ATOM      4  C   UNL     1      12.224  -8.506  -0.615  1.00  0.00     0.315 A 
ATOM      5  C   UNL     1      12.430  -8.194  -3.001  1.00  0.00     0.165 A 
ATOM      6  C   UNL     1      12.772  -8.886  -1.839  1.00  0.00     0.237 A 
ENDROOT
BRANCH   1   7
ATOM      7  C   UNL     1      10.060  -5.626  -1.648  1.00  0.00     0.193 C 
ATOM      8  O   UNL     1      10.369  -4.672  -0.918  1.00  0.00    -0.289 OA
BRANCH   7   9
ATOM      9  C   UNL     1       8.815  -5.603  -2.398  1.00  0.00     0.023 A 
ATOM     10  C   UNL     1       7.912  -6.660  -2.283  1.00  0.00     0.012 A 
ATOM     11  C   UNL     1       8.523  -4.524  -3.232  1.00  0.00     0.012 A 
ATOM     12  C   UNL     1       6.717  -6.638  -3.003  1.00  0.00     0.004 A 
ATOM     13  C   UNL     1       7.327  -4.501  -3.951  1.00  0.00     0.004 A 
ATOM     14  C   UNL     1       6.424  -5.558  -3.837  1.00  0.00    -0.051 A 
ATOM     15  C   UNL     1       5.148  -5.535  -4.606  1.00  0.00     0.044 C 
ENDBRANCH   7   9
ENDBRANCH   1   7
BRANCH   4  16
ATOM     16  N   UNL     1      12.562  -9.198   0.580  1.00  0.00     0.066 N 
ATOM     17  O   UNL     1      13.677  -9.768   0.656  1.00  0.00    -0.258 OA
ATOM     18  O   UNL     1      11.736  -9.219   1.523  1.00  0.00    -0.258 OA
ENDBRANCH   4  16
BRANCH   5  19
ATOM     19  O   UNL     1      12.957  -8.554  -4.205  1.00  0.00    -0.504 OA
ATOM     20  H   UNL     1      12.274  -8.489  -4.892  1.00  0.00     0.293 HD
ENDBRANCH   5  19
BRANCH   6  21
ATOM     21  O   UNL     1      13.645  -9.932  -1.914  1.00  0.00    -0.500 OA
ATOM     22  H   UNL     1      14.506  -9.665  -1.553  1.00  0.00     0.294 HD
ENDBRANCH   6  21
TORSDOF 5
ENDMDL
MODEL 8
REMARK VINA RESULT:    -4.123      3.823      7.026
REMARK INTER + INTRA:          -5.892
REMARK INTER:                  -4.900
REMARK INTRA:                  -0.991
REMARK UNBOUND:                -0.804
REMARK SMILES Cc1ccc(C(=O)c2cc(O)c(O)c([N+](=O)[O-])c2)cc1
REMARK SMILES IDX 8 1 18 2 9 3 14 4 10 5 12 6 6 7 7 8 5 9 4 10 19 11 3 12
REMARK SMILES IDX 20 13 2 14 1 15 15 16 17 17 16 18 11 19 13 21
REMARK H PARENT 11 20 13 22
ROOT
ATOM      1  C   UNL     1      10.306  -7.778  -2.005  1.00  0.00     0.033 A 
ATOM      2  C   UNL     1      11.136  -7.981  -3.084  1.00  0.00     0.102 A 
ATOM      3  C   UNL     1      10.675  -8.072  -0.714  1.00  0.00     0.063 A 
ATOM      4  C   UNL     1      12.408  -8.506  -2.857  1.00  0.00     0.315 A 
ATOM      5  C   UNL     1      11.947  -8.598  -0.487  1.00  0.00     0.165 A 
ATOM      6  C   UNL     1      12.814  -8.815  -1.559  1.00  0.00     0.237 A 
ENDROOT
BRANCH   1   7
ATOM      7  C   UNL     1       8.944  -7.215  -2.248  1.00  0.00     0.193 C 
ATOM      8  O   UNL     1       8.196  -7.844  -3.013  1.00  0.00    -0.289 OA
BRANCH   7   9
ATOM      9  C   UNL     1       8.487  -5.983  -1.626  1.00  0.00     0.023 A 
ATOM     10  C   UNL     1       7.298  -5.969  -0.896  1.00  0.00     0.012 A 
ATOM     11  C   UNL     1       9.237  -4.815  -1.758  1.00  0.00     0.012 A 
ATOM     12  C   UNL     1       6.860  -4.787  -0.300  1.00  0.00     0.004 A 
ATOM     13  C   UNL     1       8.800  -3.632  -1.161  1.00  0.00     0.004 A 
ATOM     14  C   UNL     1       7.611  -3.618  -0.432  1.00  0.00    -0.051 A 
ATOM     15  C   UNL     1       7.141  -2.355   0.205  1.00  0.00     0.044 C 
ENDBRANCH   7   9
ENDBRANCH   1   7
BRANCH   4  16
ATOM     16  N   UNL     1      13.277  -8.720  -3.961  1.00  0.00     0.066 N 
ATOM     17  O   UNL     1      13.145  -8.006  -4.984  1.00  0.00    -0.258 OA
ATOM     18  O   UNL     1      14.150  -9.616  -3.881  1.00  0.00    -0.258 OA
ENDBRANCH   4  16
BRANCH   5  19
ATOM     19  O   UNL     1      12.330  -8.895   0.787  1.00  0.00    -0.504 OA
ATOM     20  H   UNL     1      11.800  -9.638   1.121  1.00  0.00     0.293 HD
ENDBRANCH   5  19
BRANCH   6  21
ATOM     21  O   UNL     1      14.056  -9.330  -1.324  1.00  0.00    -0.500 OA
ATOM     22  H   UNL     1      13.977 -10.252  -1.035  1.00  0.00     0.294 HD
ENDBRANCH   6  21
TORSDOF 5
ENDMDL
MODEL 9
REMARK VINA RESULT:    -4.064      4.304      7.341
REMARK INTER + INTRA:          -5.818
REMARK INTER:                  -5.006
REMARK INTRA:                  -0.812
REMARK UNBOUND:                -0.804
REMARK SMILES Cc1ccc(C(=O)c2cc(O)c(O)c([N+](=O)[O-])c2)cc1
REMARK SMILES IDX 8 1 18 2 9 3 14 4 10 5 12 6 6 7 7 8 5 9 4 10 19 11 3 12
REMARK SMILES IDX 20 13 2 14 1 15 15 16 17 17 16 18 11 19 13 21
REMARK H PARENT 11 20 13 22
ROOT
ATOM      1  C   UNL     1      11.383  -7.879  -1.194  1.00  0.00     0.033 A 
ATOM      2  C   UNL     1      12.563  -8.527  -1.479  1.00  0.00     0.102 A 
ATOM      3  C   UNL     1      10.845  -7.828   0.070  1.00  0.00     0.063 A 
ATOM      4  C   UNL     1      13.245  -9.158  -0.438  1.00  0.00     0.315 A 
ATOM      5  C   UNL     1      11.527  -8.460   1.110  1.00  0.00     0.165 A 
ATOM      6  C   UNL     1      12.727  -9.125   0.856  1.00  0.00     0.237 A 
ENDROOT
BRANCH   1   7
ATOM      7  C   UNL     1      10.652  -7.203  -2.309  1.00  0.00     0.193 C 
ATOM      8  O   UNL     1      11.029  -7.445  -3.465  1.00  0.00    -0.289 OA
BRANCH   7   9
ATOM      9  C   UNL     1       9.542  -6.295  -2.075  1.00  0.00     0.023 A 
ATOM     10  C   UNL     1       8.229  -6.759  -2.167  1.00  0.00     0.012 A 
ATOM     11  C   UNL     1       9.788  -4.959  -1.757  1.00  0.00     0.012 A 
ATOM     12  C   UNL     1       7.164  -5.887  -1.942  1.00  0.00     0.004 A 
ATOM     13  C   UNL     1       8.722  -4.087  -1.532  1.00  0.00     0.004 A 
ATOM     14  C   UNL     1       7.410  -4.551  -1.625  1.00  0.00    -0.051 A 
ATOM     15  C   UNL     1       6.271  -3.620  -1.386  1.00  0.00     0.044 C 
ENDBRANCH   7   9
ENDBRANCH   1   7
BRANCH   4  16
ATOM     16  N   UNL     1      14.466  -9.831  -0.716  1.00  0.00     0.066 N 
ATOM     17  O   UNL     1      15.344  -9.888   0.178  1.00  0.00    -0.258 OA
ATOM     18  O   UNL     1      14.629 -10.347  -1.846  1.00  0.00    -0.258 OA
ENDBRANCH   4  16
BRANCH   5  19
ATOM     19  O   UNL     1      11.009  -8.420   2.370  1.00  0.00    -0.504 OA
ATOM     20  H   UNL     1      10.801  -7.501   2.607  1.00  0.00     0.293 HD
ENDBRANCH   5  19
BRANCH   6  21
ATOM     21  O   UNL     1      13.384  -9.739   1.883  1.00  0.00    -0.500 OA
ATOM     22  H   UNL     1      14.283  -9.972   1.601  1.00  0.00     0.294 HD
ENDBRANCH   6  21
TORSDOF 5
ENDMDL
