MODEL 1
REMARK VINA RESULT:    -6.944      0.000      0.000
REMARK INTER + INTRA:          -8.725
REMARK INTER:                  -8.162
REMARK INTRA:                  -0.563
REMARK UNBOUND:                -0.563
REMARK SMILES O=C(O)c1cc(-c2ccc(F)cc2F)ccc1O
REMARK SMILES IDX 6 1 5 2 15 3 4 4 17 5 16 6 7 7 13 8 12 9 8 10 10 11 9 12
REMARK SMILES IDX 14 13 11 14 2 15 1 16 3 17 18 19
REMARK H PARENT 3 18 18 20
ROOT
ATOM      1  C   UNL     1       3.380  -0.065   7.954  1.00  0.00    -0.014 A 
ATOM      2  C   UNL     1       4.193   0.821   7.248  1.00  0.00     0.028 A 
ATOM      3  C   UNL     1       2.231  -0.584   7.358  1.00  0.00     0.013 A 
ATOM      4  C   UNL     1       3.858   1.188   5.944  1.00  0.00     0.102 A 
ATOM      5  C   UNL     1       2.709   0.669   5.348  1.00  0.00     0.130 A 
ATOM      6  C   UNL     1       1.896  -0.218   6.055  1.00  0.00     0.048 A 
ENDROOT
BRANCH   1   7
ATOM      7  C   UNL     1       3.727  -0.445   9.307  1.00  0.00     0.018 A 
ATOM      8  C   UNL     1       2.754  -0.440  10.307  1.00  0.00     0.133 A 
ATOM      9  C   UNL     1       3.092  -0.807  11.610  1.00  0.00     0.079 A 
ATOM     10  C   UNL     1       5.036  -0.817   9.609  1.00  0.00     0.015 A 
ATOM     11  C   UNL     1       4.401  -1.178  11.912  1.00  0.00     0.126 A 
ATOM     12  C   UNL     1       5.373  -1.184  10.912  1.00  0.00     0.040 A 
ATOM     13  F   UNL     1       1.491  -0.081  10.034  1.00  0.00    -0.206 F 
ATOM     14  F   UNL     1       4.727  -1.531  13.163  1.00  0.00    -0.207 F 
ENDBRANCH   1   7
BRANCH   4  15
ATOM     15  C   UNL     1       4.721   2.114   5.223  1.00  0.00     0.339 C 
ATOM     16  O   UNL     1       4.360   3.180   4.719  1.00  0.00    -0.246 OA
BRANCH  15  17
ATOM     17  O   UNL     1       6.008   1.678   5.157  1.00  0.00    -0.478 OA
ATOM     18  H   UNL     1       6.263   1.431   4.243  1.00  0.00     0.297 HD
ENDBRANCH  15  17
ENDBRANCH   4  15
BRANCH   5  19
ATOM     19  O   UNL     1       2.364   1.014   4.075  1.00  0.00    -0.507 OA
ATOM     20  H   UNL     1       2.424   0.228   3.505  1.00  0.00     0.293 HD
ENDBRANCH   5  19
TORSDOF 4
ENDMDL
MODEL 2
REMARK VINA RESULT:    -6.942      1.126      1.609
REMARK INTER + INTRA:          -8.722
REMARK INTER:                  -8.147
REMARK INTRA:                  -0.575
REMARK UNBOUND:                -0.563
REMARK SMILES O=C(O)c1cc(-c2ccc(F)cc2F)ccc1O
REMARK SMILES IDX 6 1 5 2 15 3 4 4 17 5 16 6 7 7 13 8 12 9 8 10 10 11 9 12
REMARK SMILES IDX 14 13 11 14 2 15 1 16 3 17 18 19
REMARK H PARENT 3 18 18 20
ROOT
ATOM      1  C   UNL     1       3.430  -0.086   7.946  1.00  0.00    -0.014 A 
ATOM      2  C   UNL     1       4.229   0.812   7.240  1.00  0.00     0.028 A 
ATOM      3  C   UNL     1       2.285  -0.617   7.351  1.00  0.00     0.013 A 
ATOM      4  C   UNL     1       3.885   1.181   5.940  1.00  0.00     0.102 A 
ATOM      5  C   UNL     1       2.740   0.650   5.345  1.00  0.00     0.130 A 
ATOM      6  C   UNL     1       1.940  -0.249   6.051  1.00  0.00     0.048 A 
ENDROOT
BRANCH   1   7
ATOM      7  C   UNL     1       3.786  -0.468   9.295  1.00  0.00     0.018 A 
ATOM      8  C   UNL     1       5.102  -0.819   9.600  1.00  0.00     0.133 A 
ATOM      9  C   UNL     1       5.441  -1.187  10.902  1.00  0.00     0.079 A 
ATOM     10  C   UNL     1       2.811  -0.483  10.292  1.00  0.00     0.015 A 
ATOM     11  C   UNL     1       4.466  -1.203  11.899  1.00  0.00     0.126 A 
ATOM     12  C   UNL     1       3.151  -0.851  11.594  1.00  0.00     0.040 A 
ATOM     13  F   UNL     1       6.050  -0.812   8.652  1.00  0.00    -0.206 F 
ATOM     14  F   UNL     1       4.790  -1.556  13.149  1.00  0.00    -0.207 F 
ENDBRANCH   1   7
BRANCH   4  15
ATOM     15  C   UNL     1       4.733   2.121   5.220  1.00  0.00     0.339 C 
ATOM     16  O   UNL     1       4.355   3.181   4.714  1.00  0.00    -0.246 OA
BRANCH  15  17
ATOM     17  O   UNL     1       6.028   1.706   5.156  1.00  0.00    -0.478 OA
ATOM     18  H   UNL     1       6.499   1.851   6.002  1.00  0.00     0.297 HD
ENDBRANCH  15  17
ENDBRANCH   4  15
BRANCH   5  19
ATOM     19  O   UNL     1       2.386   0.997   4.075  1.00  0.00    -0.507 OA
ATOM     20  H   UNL     1       1.787   0.319   3.716  1.00  0.00     0.293 HD
ENDBRANCH   5  19
TORSDOF 4
ENDMDL
MODEL 3
REMARK VINA RESULT:    -6.919      1.684      3.158
REMARK INTER + INTRA:          -8.696
REMARK INTER:                  -8.101
REMARK INTRA:                  -0.595
REMARK UNBOUND:                -0.563
REMARK SMILES O=C(O)c1cc(-c2ccc(F)cc2F)ccc1O
REMARK SMILES IDX 6 1 5 2 15 3 4 4 17 5 16 6 7 7 13 8 12 9 8 10 10 11 9 12
REMARK SMILES IDX 14 13 11 14 2 15 1 16 3 17 18 19
REMARK H PARENT 3 18 18 20
ROOT
ATOM      1  C   UNL     1       3.435  -0.034   7.977  1.00  0.00    -0.014 A 
ATOM      2  C   UNL     1       2.284  -0.595   7.424  1.00  0.00     0.028 A 
ATOM      3  C   UNL     1       4.186   0.884   7.244  1.00  0.00     0.013 A 
ATOM      4  C   UNL     1       1.884  -0.237   6.136  1.00  0.00     0.102 A 
ATOM      5  C   UNL     1       2.635   0.681   5.402  1.00  0.00     0.130 A 
ATOM      6  C   UNL     1       3.787   1.242   5.956  1.00  0.00     0.048 A 
ENDROOT
BRANCH   1   7
ATOM      7  C   UNL     1       3.851  -0.406   9.313  1.00  0.00     0.018 A 
ATOM      8  C   UNL     1       5.173  -0.782   9.555  1.00  0.00     0.133 A 
ATOM      9  C   UNL     1       5.570  -1.140  10.844  1.00  0.00     0.079 A 
ATOM     10  C   UNL     1       2.928  -0.385  10.358  1.00  0.00     0.015 A 
ATOM     11  C   UNL     1       4.647  -1.120  11.889  1.00  0.00     0.126 A 
ATOM     12  C   UNL     1       3.326  -0.743  11.646  1.00  0.00     0.040 A 
ATOM     13  F   UNL     1       6.071  -0.810   8.560  1.00  0.00    -0.206 F 
ATOM     14  F   UNL     1       5.027  -1.463  13.126  1.00  0.00    -0.207 F 
ENDBRANCH   1   7
BRANCH   4  15
ATOM     15  C   UNL     1       0.679  -0.834   5.575  1.00  0.00     0.339 C 
ATOM     16  O   UNL     1       0.623  -1.476   4.524  1.00  0.00    -0.246 OA
BRANCH  15  17
ATOM     17  O   UNL     1      -0.418  -0.609   6.349  1.00  0.00    -0.478 OA
ATOM     18  H   UNL     1      -1.170  -0.263   5.823  1.00  0.00     0.297 HD
ENDBRANCH  15  17
ENDBRANCH   4  15
BRANCH   5  19
ATOM     19  O   UNL     1       2.261   1.044   4.143  1.00  0.00    -0.507 OA
ATOM     20  H   UNL     1       1.290   1.049   4.089  1.00  0.00     0.293 HD
ENDBRANCH   5  19
TORSDOF 4
ENDMDL
MODEL 4
REMARK VINA RESULT:    -6.919      1.238      2.718
REMARK INTER + INTRA:          -8.695
REMARK INTER:                  -8.123
REMARK INTRA:                  -0.573
REMARK UNBOUND:                -0.563
REMARK SMILES O=C(O)c1cc(-c2ccc(F)cc2F)ccc1O
REMARK SMILES IDX 6 1 5 2 15 3 4 4 17 5 16 6 7 7 13 8 12 9 8 10 10 11 9 12
REMARK SMILES IDX 14 13 11 14 2 15 1 16 3 17 18 19
REMARK H PARENT 3 18 18 20
ROOT
ATOM      1  C   UNL     1       3.386  -0.025   8.004  1.00  0.00    -0.014 A 
ATOM      2  C   UNL     1       2.245  -0.592   7.438  1.00  0.00     0.028 A 
ATOM      3  C   UNL     1       4.139   0.899   7.279  1.00  0.00     0.013 A 
ATOM      4  C   UNL     1       1.857  -0.237   6.146  1.00  0.00     0.102 A 
ATOM      5  C   UNL     1       2.610   0.686   5.421  1.00  0.00     0.130 A 
ATOM      6  C   UNL     1       3.751   1.254   5.988  1.00  0.00     0.048 A 
ENDROOT
BRANCH   1   7
ATOM      7  C   UNL     1       3.790  -0.393   9.344  1.00  0.00     0.018 A 
ATOM      8  C   UNL     1       2.851  -0.421  10.376  1.00  0.00     0.133 A 
ATOM      9  C   UNL     1       3.245  -0.777  11.666  1.00  0.00     0.079 A 
ATOM     10  C   UNL     1       5.120  -0.723   9.602  1.00  0.00     0.015 A 
ATOM     11  C   UNL     1       4.575  -1.105  11.924  1.00  0.00     0.126 A 
ATOM     12  C   UNL     1       5.513  -1.079  10.891  1.00  0.00     0.040 A 
ATOM     13  F   UNL     1       1.569  -0.105  10.146  1.00  0.00    -0.206 F 
ATOM     14  F   UNL     1       4.954  -1.447  13.162  1.00  0.00    -0.207 F 
ENDBRANCH   1   7
BRANCH   4  15
ATOM     15  C   UNL     1       0.662  -0.841   5.572  1.00  0.00     0.339 C 
ATOM     16  O   UNL     1       0.621  -1.481   4.518  1.00  0.00    -0.246 OA
BRANCH  15  17
ATOM     17  O   UNL     1      -0.444  -0.628   6.336  1.00  0.00    -0.478 OA
ATOM     18  H   UNL     1      -0.948  -1.455   6.486  1.00  0.00     0.297 HD
ENDBRANCH  15  17
ENDBRANCH   4  15
BRANCH   5  19
ATOM     19  O   UNL     1       2.247   1.047   4.157  1.00  0.00    -0.507 OA
ATOM     20  H   UNL     1       1.284   0.951   4.064  1.00  0.00     0.293 HD
ENDBRANCH   5  19
TORSDOF 4
ENDMDL
MODEL 5
REMARK VINA RESULT:    -5.335      4.313      6.551
REMARK INTER + INTRA:          -6.834
REMARK INTER:                  -5.748
REMARK INTRA:                  -1.086
REMARK UNBOUND:                -0.563
REMARK SMILES O=C(O)c1cc(-c2ccc(F)cc2F)ccc1O
REMARK SMILES IDX 6 1 5 2 15 3 4 4 17 5 16 6 7 7 13 8 12 9 8 10 10 11 9 12
REMARK SMILES IDX 14 13 11 14 2 15 1 16 3 17 18 19
REMARK H PARENT 3 18 18 20
ROOT
ATOM      1  C   UNL     1       4.378  -0.603  10.376  1.00  0.00    -0.014 A 
ATOM      2  C   UNL     1       4.956   0.241  11.324  1.00  0.00     0.028 A 
ATOM      3  C   UNL     1       4.025  -1.906  10.726  1.00  0.00     0.013 A 
ATOM      4  C   UNL     1       5.181  -0.219  12.622  1.00  0.00     0.102 A 
ATOM      5  C   UNL     1       4.828  -1.522  12.972  1.00  0.00     0.130 A 
ATOM      6  C   UNL     1       4.249  -2.366  12.023  1.00  0.00     0.048 A 
ENDROOT
BRANCH   1   7
ATOM      7  C   UNL     1       4.145  -0.128   9.029  1.00  0.00     0.018 A 
ATOM      8  C   UNL     1       5.133  -0.274   8.055  1.00  0.00     0.133 A 
ATOM      9  C   UNL     1       4.905   0.186   6.757  1.00  0.00     0.079 A 
ATOM     10  C   UNL     1       2.931   0.476   8.707  1.00  0.00     0.015 A 
ATOM     11  C   UNL     1       3.691   0.791   6.435  1.00  0.00     0.126 A 
ATOM     12  C   UNL     1       2.703   0.935   7.410  1.00  0.00     0.040 A 
ATOM     13  F   UNL     1       6.307  -0.850   8.349  1.00  0.00    -0.206 F 
ATOM     14  F   UNL     1       3.471   1.232   5.190  1.00  0.00    -0.207 F 
ENDBRANCH   1   7
BRANCH   4  15
ATOM     15  C   UNL     1       5.786   0.678  13.598  1.00  0.00     0.339 C 
ATOM     16  O   UNL     1       5.938   0.431  14.796  1.00  0.00    -0.246 OA
BRANCH  15  17
ATOM     17  O   UNL     1       6.182   1.856  13.043  1.00  0.00    -0.478 OA
ATOM     18  H   UNL     1       5.929   1.917  12.098  1.00  0.00     0.297 HD
ENDBRANCH  15  17
ENDBRANCH   4  15
BRANCH   5  19
ATOM     19  O   UNL     1       5.039  -1.990  14.235  1.00  0.00    -0.507 OA
ATOM     20  H   UNL     1       5.607  -2.778  14.190  1.00  0.00     0.293 HD
ENDBRANCH   5  19
TORSDOF 4
ENDMDL
MODEL 6
REMARK VINA RESULT:    -5.321      4.489      6.750
REMARK INTER + INTRA:          -6.818
REMARK INTER:                  -5.732
REMARK INTRA:                  -1.086
REMARK UNBOUND:                -0.563
REMARK SMILES O=C(O)c1cc(-c2ccc(F)cc2F)ccc1O
REMARK SMILES IDX 6 1 5 2 15 3 4 4 17 5 16 6 7 7 13 8 12 9 8 10 10 11 9 12
REMARK SMILES IDX 14 13 11 14 2 15 1 16 3 17 18 19
REMARK H PARENT 3 18 18 20
ROOT
ATOM      1  C   UNL     1       3.844  -0.905  10.456  1.00  0.00    -0.014 A 
ATOM      2  C   UNL     1       3.703  -2.165  11.036  1.00  0.00     0.028 A 
ATOM      3  C   UNL     1       4.489   0.116  11.154  1.00  0.00     0.013 A 
ATOM      4  C   UNL     1       4.207  -2.405  12.315  1.00  0.00     0.102 A 
ATOM      5  C   UNL     1       4.852  -1.384  13.013  1.00  0.00     0.130 A 
ATOM      6  C   UNL     1       4.993  -0.123  12.432  1.00  0.00     0.048 A 
ENDROOT
BRANCH   1   7
ATOM      7  C   UNL     1       3.320  -0.655   9.131  1.00  0.00     0.018 A 
ATOM      8  C   UNL     1       2.018  -0.181   8.970  1.00  0.00     0.133 A 
ATOM      9  C   UNL     1       1.517   0.059   7.690  1.00  0.00     0.079 A 
ATOM     10  C   UNL     1       4.121  -0.888   8.013  1.00  0.00     0.015 A 
ATOM     11  C   UNL     1       2.317  -0.175   6.572  1.00  0.00     0.126 A 
ATOM     12  C   UNL     1       3.619  -0.648   6.734  1.00  0.00     0.040 A 
ATOM     13  F   UNL     1       1.235   0.046  10.034  1.00  0.00    -0.206 F 
ATOM     14  F   UNL     1       1.837   0.054   5.344  1.00  0.00    -0.207 F 
ENDBRANCH   1   7
BRANCH   4  15
ATOM     15  C   UNL     1       4.051  -3.728  12.903  1.00  0.00     0.339 C 
ATOM     16  O   UNL     1       4.532  -4.093  13.978  1.00  0.00    -0.246 OA
BRANCH  15  17
ATOM     17  O   UNL     1       3.295  -4.553  12.129  1.00  0.00    -0.478 OA
ATOM     18  H   UNL     1       2.703  -5.118  12.668  1.00  0.00     0.297 HD
ENDBRANCH  15  17
ENDBRANCH   4  15
BRANCH   5  19
ATOM     19  O   UNL     1       5.353  -1.598  14.263  1.00  0.00    -0.507 OA
ATOM     20  H   UNL     1       5.802  -2.461  14.281  1.00  0.00     0.293 HD
ENDBRANCH   5  19
TORSDOF 4
ENDMDL
MODEL 7
REMARK VINA RESULT:    -5.257      4.005      6.252
REMARK INTER + INTRA:          -6.742
REMARK INTER:                  -5.667
REMARK INTRA:                  -1.076
REMARK UNBOUND:                -0.563
REMARK SMILES O=C(O)c1cc(-c2ccc(F)cc2F)ccc1O
REMARK SMILES IDX 6 1 5 2 15 3 4 4 17 5 16 6 7 7 13 8 12 9 8 10 10 11 9 12
REMARK SMILES IDX 14 13 11 14 2 15 1 16 3 17 18 19
REMARK H PARENT 3 18 18 20
ROOT
ATOM      1  C   UNL     1       3.981  -0.777  10.479  1.00  0.00    -0.014 A 
ATOM      2  C   UNL     1       4.633   0.190  11.242  1.00  0.00     0.028 A 
ATOM      3  C   UNL     1       3.770  -2.053  11.002  1.00  0.00     0.013 A 
ATOM      4  C   UNL     1       5.076  -0.117  12.529  1.00  0.00     0.102 A 
ATOM      5  C   UNL     1       4.865  -1.393  13.052  1.00  0.00     0.130 A 
ATOM      6  C   UNL     1       4.212  -2.361  12.288  1.00  0.00     0.048 A 
ENDROOT
BRANCH   1   7
ATOM      7  C   UNL     1       3.523  -0.460   9.143  1.00  0.00     0.018 A 
ATOM      8  C   UNL     1       2.207  -0.047   8.934  1.00  0.00     0.133 A 
ATOM      9  C   UNL     1       1.769   0.259   7.645  1.00  0.00     0.079 A 
ATOM     10  C   UNL     1       4.401  -0.566   8.065  1.00  0.00     0.015 A 
ATOM     11  C   UNL     1       2.647   0.151   6.566  1.00  0.00     0.126 A 
ATOM     12  C   UNL     1       3.963  -0.260   6.777  1.00  0.00     0.040 A 
ATOM     13  F   UNL     1       1.349   0.058   9.959  1.00  0.00    -0.206 F 
ATOM     14  F   UNL     1       2.228   0.444   5.329  1.00  0.00    -0.207 F 
ENDBRANCH   1   7
BRANCH   4  15
ATOM     15  C   UNL     1       5.755   0.908  13.310  1.00  0.00     0.339 C 
ATOM     16  O   UNL     1       6.337   0.720  14.381  1.00  0.00    -0.246 OA
BRANCH  15  17
ATOM     17  O   UNL     1       5.685   2.135  12.726  1.00  0.00    -0.478 OA
ATOM     18  H   UNL     1       6.388   2.735  13.054  1.00  0.00     0.297 HD
ENDBRANCH  15  17
ENDBRANCH   4  15
BRANCH   5  19
ATOM     19  O   UNL     1       5.289  -1.713  14.307  1.00  0.00    -0.507 OA
ATOM     20  H   UNL     1       4.604  -1.455  14.949  1.00  0.00     0.293 HD
ENDBRANCH   5  19
TORSDOF 4
ENDMDL
MODEL 8
REMARK VINA RESULT:    -4.650      2.123      3.273
REMARK INTER + INTRA:          -6.028
REMARK INTER:                  -5.038
REMARK INTRA:                  -0.990
REMARK UNBOUND:                -0.563
REMARK SMILES O=C(O)c1cc(-c2ccc(F)cc2F)ccc1O
REMARK SMILES IDX 6 1 5 2 15 3 4 4 17 5 16 6 7 7 13 8 12 9 8 10 10 11 9 12
REMARK SMILES IDX 14 13 11 14 2 15 1 16 3 17 18 19
REMARK H PARENT 3 18 18 20
ROOT
ATOM      1  C   UNL     1       4.022  -0.573   9.281  1.00  0.00    -0.014 A 
ATOM      2  C   UNL     1       2.662  -0.541   8.976  1.00  0.00     0.028 A 
ATOM      3  C   UNL     1       4.967  -0.560   8.255  1.00  0.00     0.013 A 
ATOM      4  C   UNL     1       2.246  -0.497   7.645  1.00  0.00     0.102 A 
ATOM      5  C   UNL     1       3.191  -0.484   6.619  1.00  0.00     0.130 A 
ATOM      6  C   UNL     1       4.552  -0.515   6.924  1.00  0.00     0.048 A 
ENDROOT
BRANCH   1   7
ATOM      7  C   UNL     1       4.455  -0.620  10.661  1.00  0.00     0.018 A 
ATOM      8  C   UNL     1       4.269  -1.780  11.414  1.00  0.00     0.133 A 
ATOM      9  C   UNL     1       4.687  -1.822  12.744  1.00  0.00     0.079 A 
ATOM     10  C   UNL     1       5.060   0.496  11.237  1.00  0.00     0.015 A 
ATOM     11  C   UNL     1       5.291  -0.705  13.321  1.00  0.00     0.126 A 
ATOM     12  C   UNL     1       5.477   0.454  12.567  1.00  0.00     0.040 A 
ATOM     13  F   UNL     1       3.687  -2.861  10.875  1.00  0.00    -0.206 F 
ATOM     14  F   UNL     1       5.693  -0.744  14.597  1.00  0.00    -0.207 F 
ENDBRANCH   1   7
BRANCH   4  15
ATOM     15  C   UNL     1       0.821  -0.464   7.348  1.00  0.00     0.339 C 
ATOM     16  O   UNL     1       0.312  -0.739   6.258  1.00  0.00    -0.246 OA
BRANCH  15  17
ATOM     17  O   UNL     1       0.075  -0.089   8.423  1.00  0.00    -0.478 OA
ATOM     18  H   UNL     1      -0.145  -0.852   8.998  1.00  0.00     0.297 HD
ENDBRANCH  15  17
ENDBRANCH   4  15
BRANCH   5  19
ATOM     19  O   UNL     1       2.805  -0.440   5.312  1.00  0.00    -0.507 OA
ATOM     20  H   UNL     1       2.144  -1.136   5.153  1.00  0.00     0.293 HD
ENDBRANCH   5  19
TORSDOF 4
ENDMDL
MODEL 9
REMARK VINA RESULT:    -4.136      5.911      8.271
REMARK INTER + INTRA:          -5.424
REMARK INTER:                  -4.768
REMARK INTRA:                  -0.656
REMARK UNBOUND:                -0.563
REMARK SMILES O=C(O)c1cc(-c2ccc(F)cc2F)ccc1O
REMARK SMILES IDX 6 1 5 2 15 3 4 4 17 5 16 6 7 7 13 8 12 9 8 10 10 11 9 12
REMARK SMILES IDX 14 13 11 14 2 15 1 16 3 17 18 19
REMARK H PARENT 3 18 18 20
ROOT
ATOM      1  C   UNL     1       5.587   0.609  13.685  1.00  0.00    -0.014 A 
ATOM      2  C   UNL     1       6.513  -0.062  14.483  1.00  0.00     0.028 A 
ATOM      3  C   UNL     1       5.184   1.901  14.020  1.00  0.00     0.013 A 
ATOM      4  C   UNL     1       7.037   0.560  15.617  1.00  0.00     0.102 A 
ATOM      5  C   UNL     1       6.634   1.853  15.952  1.00  0.00     0.130 A 
ATOM      6  C   UNL     1       5.707   2.524  15.153  1.00  0.00     0.048 A 
ENDROOT
BRANCH   1   7
ATOM      7  C   UNL     1       5.042  -0.036  12.510  1.00  0.00     0.018 A 
ATOM      8  C   UNL     1       4.642  -1.372  12.565  1.00  0.00     0.133 A 
ATOM      9  C   UNL     1       4.117  -1.989  11.430  1.00  0.00     0.079 A 
ATOM     10  C   UNL     1       4.917   0.681  11.320  1.00  0.00     0.015 A 
ATOM     11  C   UNL     1       3.993  -1.273  10.240  1.00  0.00     0.126 A 
ATOM     12  C   UNL     1       4.393   0.063  10.185  1.00  0.00     0.040 A 
ATOM     13  F   UNL     1       4.757  -2.075  13.700  1.00  0.00    -0.206 F 
ATOM     14  F   UNL     1       3.490  -1.865   9.149  1.00  0.00    -0.207 F 
ENDBRANCH   1   7
BRANCH   4  15
ATOM     15  C   UNL     1       8.003  -0.157  16.437  1.00  0.00     0.339 C 
ATOM     16  O   UNL     1       8.831   0.367  17.186  1.00  0.00    -0.246 OA
BRANCH  15  17
ATOM     17  O   UNL     1       7.902  -1.507  16.296  1.00  0.00    -0.478 OA
ATOM     18  H   UNL     1       7.144  -1.870  16.799  1.00  0.00     0.297 HD
ENDBRANCH  15  17
ENDBRANCH   4  15
BRANCH   5  19
ATOM     19  O   UNL     1       7.134   2.478  17.055  1.00  0.00    -0.507 OA
ATOM     20  H   UNL     1       6.948   1.934  17.840  1.00  0.00     0.293 HD
ENDBRANCH   5  19
TORSDOF 4
ENDMDL
