MODEL 1
REMARK VINA RESULT:    -5.332      0.000      0.000
REMARK INTER + INTRA:          -7.345
REMARK INTER:                  -6.578
REMARK INTRA:                  -0.767
REMARK UNBOUND:                -0.767
REMARK SMILES Cc1ccc(C(=O)c2cc(O)c(O)c([N+](=O)[O-])c2)cc1
REMARK SMILES IDX 8 1 18 2 9 3 14 4 10 5 12 6 6 7 7 8 5 9 4 10 19 11 3 12
REMARK SMILES IDX 20 13 2 14 1 15 15 16 17 17 16 18 11 19 13 21
REMARK H PARENT 11 20 13 22
ROOT
ATOM      1  C   UNL     1       3.511   0.877   7.967  1.00  0.00     0.033 A 
ATOM      2  C   UNL     1       2.485   0.030   7.617  1.00  0.00     0.102 A 
ATOM      3  C   UNL     1       4.125   1.716   7.068  1.00  0.00     0.063 A 
ATOM      4  C   UNL     1       2.047   0.024   6.293  1.00  0.00     0.315 A 
ATOM      5  C   UNL     1       3.689   1.709   5.743  1.00  0.00     0.165 A 
ATOM      6  C   UNL     1       2.649   0.862   5.355  1.00  0.00     0.237 A 
ENDROOT
BRANCH   1   7
ATOM      7  C   UNL     1       3.980   0.884   9.386  1.00  0.00     0.193 C 
ATOM      8  O   UNL     1       4.390   1.961   9.844  1.00  0.00    -0.289 OA
BRANCH   7   9
ATOM      9  C   UNL     1       3.965  -0.308  10.218  1.00  0.00     0.023 A 
ATOM     10  C   UNL     1       5.113  -1.093  10.333  1.00  0.00     0.012 A 
ATOM     11  C   UNL     1       2.803  -0.668  10.901  1.00  0.00     0.012 A 
ATOM     12  C   UNL     1       5.098  -2.236  11.131  1.00  0.00     0.004 A 
ATOM     13  C   UNL     1       2.788  -1.812  11.700  1.00  0.00     0.004 A 
ATOM     14  C   UNL     1       3.936  -2.596  11.815  1.00  0.00    -0.051 A 
ATOM     15  C   UNL     1       3.921  -3.819  12.667  1.00  0.00     0.044 C 
ENDBRANCH   7   9
ENDBRANCH   1   7
BRANCH   4  16
ATOM     16  N   UNL     1       0.987  -0.846   5.917  1.00  0.00     0.066 N 
ATOM     17  O   UNL     1       0.110  -1.135   6.766  1.00  0.00    -0.258 OA
ATOM     18  O   UNL     1       0.959  -1.297   4.748  1.00  0.00    -0.258 OA
ENDBRANCH   4  16
BRANCH   5  19
ATOM     19  O   UNL     1       4.286   2.534   4.838  1.00  0.00    -0.504 OA
ATOM     20  H   UNL     1       3.618   3.114   4.436  1.00  0.00     0.293 HD
ENDBRANCH   5  19
BRANCH   6  21
ATOM     21  O   UNL     1       2.230   0.865   4.057  1.00  0.00    -0.500 OA
ATOM     22  H   UNL     1       2.524   1.681   3.621  1.00  0.00     0.294 HD
ENDBRANCH   6  21
TORSDOF 5
ENDMDL
MODEL 2
REMARK VINA RESULT:    -5.313      1.991      3.533
REMARK INTER + INTRA:          -7.322
REMARK INTER:                  -6.556
REMARK INTRA:                  -0.767
REMARK UNBOUND:                -0.767
REMARK SMILES Cc1ccc(C(=O)c2cc(O)c(O)c([N+](=O)[O-])c2)cc1
REMARK SMILES IDX 8 1 18 2 9 3 14 4 10 5 12 6 6 7 7 8 5 9 4 10 19 11 3 12
REMARK SMILES IDX 20 13 2 14 1 15 15 16 17 17 16 18 11 19 13 21
REMARK H PARENT 11 20 13 22
ROOT
ATOM      1  C   UNL     1       3.228  -0.911   7.560  1.00  0.00     0.033 A 
ATOM      2  C   UNL     1       4.054   0.129   7.202  1.00  0.00     0.102 A 
ATOM      3  C   UNL     1       2.148  -1.301   6.805  1.00  0.00     0.063 A 
ATOM      4  C   UNL     1       3.784   0.817   6.019  1.00  0.00     0.315 A 
ATOM      5  C   UNL     1       1.877  -0.612   5.622  1.00  0.00     0.165 A 
ATOM      6  C   UNL     1       2.696   0.447   5.229  1.00  0.00     0.237 A 
ENDROOT
BRANCH   1   7
ATOM      7  C   UNL     1       3.517  -1.649   8.827  1.00  0.00     0.193 C 
ATOM      8  O   UNL     1       3.245  -2.859   8.855  1.00  0.00    -0.289 OA
BRANCH   7   9
ATOM      9  C   UNL     1       4.093  -0.999   9.994  1.00  0.00     0.023 A 
ATOM     10  C   UNL     1       3.262  -0.527  11.010  1.00  0.00     0.012 A 
ATOM     11  C   UNL     1       5.475  -0.849  10.097  1.00  0.00     0.012 A 
ATOM     12  C   UNL     1       3.815   0.096  12.129  1.00  0.00     0.004 A 
ATOM     13  C   UNL     1       6.029  -0.227  11.216  1.00  0.00     0.004 A 
ATOM     14  C   UNL     1       5.198   0.246  12.233  1.00  0.00    -0.051 A 
ATOM     15  C   UNL     1       5.788   0.913  13.428  1.00  0.00     0.044 C 
ENDBRANCH   7   9
ENDBRANCH   1   7
BRANCH   4  16
ATOM     16  N   UNL     1       4.630   1.894   5.635  1.00  0.00     0.066 N 
ATOM     17  O   UNL     1       5.840   1.862   5.964  1.00  0.00    -0.258 OA
ATOM     18  O   UNL     1       4.141   2.843   4.979  1.00  0.00    -0.258 OA
ENDBRANCH   4  16
BRANCH   5  19
ATOM     19  O   UNL     1       0.811  -0.985   4.860  1.00  0.00    -0.504 OA
ATOM     20  H   UNL     1       0.959  -1.877   4.508  1.00  0.00     0.293 HD
ENDBRANCH   5  19
BRANCH   6  21
ATOM     21  O   UNL     1       2.422   1.113   4.070  1.00  0.00    -0.500 OA
ATOM     22  H   UNL     1       1.633   0.732   3.653  1.00  0.00     0.294 HD
ENDBRANCH   6  21
TORSDOF 5
ENDMDL
MODEL 3
REMARK VINA RESULT:    -4.617      1.801      2.092
REMARK INTER + INTRA:          -6.464
REMARK INTER:                  -5.790
REMARK INTRA:                  -0.674
REMARK UNBOUND:                -0.767
REMARK SMILES Cc1ccc(C(=O)c2cc(O)c(O)c([N+](=O)[O-])c2)cc1
REMARK SMILES IDX 8 1 18 2 9 3 14 4 10 5 12 6 6 7 7 8 5 9 4 10 19 11 3 12
REMARK SMILES IDX 20 13 2 14 1 15 15 16 17 17 16 18 11 19 13 21
REMARK H PARENT 11 20 13 22
ROOT
ATOM      1  C   UNL     1       4.396  -0.212   6.824  1.00  0.00     0.033 A 
ATOM      2  C   UNL     1       3.218  -0.875   6.571  1.00  0.00     0.102 A 
ATOM      3  C   UNL     1       4.712   0.995   6.246  1.00  0.00     0.063 A 
ATOM      4  C   UNL     1       2.303  -0.298   5.690  1.00  0.00     0.315 A 
ATOM      5  C   UNL     1       3.797   1.572   5.365  1.00  0.00     0.165 A 
ATOM      6  C   UNL     1       2.592   0.925   5.087  1.00  0.00     0.237 A 
ENDROOT
BRANCH   1   7
ATOM      7  C   UNL     1       5.376  -0.829   7.768  1.00  0.00     0.193 C 
ATOM      8  O   UNL     1       6.285  -1.514   7.276  1.00  0.00    -0.289 OA
BRANCH   7   9
ATOM      9  C   UNL     1       5.290  -0.651   9.208  1.00  0.00     0.023 A 
ATOM     10  C   UNL     1       6.455  -0.595   9.975  1.00  0.00     0.012 A 
ATOM     11  C   UNL     1       4.044  -0.535   9.824  1.00  0.00     0.012 A 
ATOM     12  C   UNL     1       6.372  -0.423  11.356  1.00  0.00     0.004 A 
ATOM     13  C   UNL     1       3.961  -0.363  11.206  1.00  0.00     0.004 A 
ATOM     14  C   UNL     1       5.126  -0.307  11.973  1.00  0.00    -0.051 A 
ATOM     15  C   UNL     1       5.039  -0.125  13.450  1.00  0.00     0.044 C 
ENDBRANCH   7   9
ENDBRANCH   1   7
BRANCH   4  16
ATOM     16  N   UNL     1       1.081  -0.972   5.419  1.00  0.00     0.066 N 
ATOM     17  O   UNL     1       0.831  -1.323   4.241  1.00  0.00    -0.258 OA
ATOM     18  O   UNL     1       0.290  -1.197   6.365  1.00  0.00    -0.258 OA
ENDBRANCH   4  16
BRANCH   5  19
ATOM     19  O   UNL     1       4.093   2.768   4.783  1.00  0.00    -0.504 OA
ATOM     20  H   UNL     1       4.052   3.473   5.449  1.00  0.00     0.293 HD
ENDBRANCH   5  19
BRANCH   6  21
ATOM     21  O   UNL     1       1.706   1.500   4.223  1.00  0.00    -0.500 OA
ATOM     22  H   UNL     1       0.806   1.420   4.578  1.00  0.00     0.294 HD
ENDBRANCH   6  21
TORSDOF 5
ENDMDL
MODEL 4
REMARK VINA RESULT:    -4.609      1.627      3.127
REMARK INTER + INTRA:          -6.453
REMARK INTER:                  -5.688
REMARK INTRA:                  -0.765
REMARK UNBOUND:                -0.767
REMARK SMILES Cc1ccc(C(=O)c2cc(O)c(O)c([N+](=O)[O-])c2)cc1
REMARK SMILES IDX 8 1 18 2 9 3 14 4 10 5 12 6 6 7 7 8 5 9 4 10 19 11 3 12
REMARK SMILES IDX 20 13 2 14 1 15 15 16 17 17 16 18 11 19 13 21
REMARK H PARENT 11 20 13 22
ROOT
ATOM      1  C   UNL     1       2.033   0.475   7.708  1.00  0.00     0.033 A 
ATOM      2  C   UNL     1       2.969   1.382   7.268  1.00  0.00     0.102 A 
ATOM      3  C   UNL     1       1.361  -0.375   6.862  1.00  0.00     0.063 A 
ATOM      4  C   UNL     1       3.249   1.441   5.902  1.00  0.00     0.315 A 
ATOM      5  C   UNL     1       1.641  -0.316   5.496  1.00  0.00     0.165 A 
ATOM      6  C   UNL     1       2.586   0.593   5.017  1.00  0.00     0.237 A 
ENDROOT
BRANCH   1   7
ATOM      7  C   UNL     1       1.733   0.411   9.170  1.00  0.00     0.193 C 
ATOM      8  O   UNL     1       0.790   1.101   9.588  1.00  0.00    -0.289 OA
BRANCH   7   9
ATOM      9  C   UNL     1       2.498  -0.417  10.088  1.00  0.00     0.023 A 
ATOM     10  C   UNL     1       1.869  -1.005  11.187  1.00  0.00     0.012 A 
ATOM     11  C   UNL     1       3.859  -0.625   9.871  1.00  0.00     0.012 A 
ATOM     12  C   UNL     1       2.603  -1.800  12.067  1.00  0.00     0.004 A 
ATOM     13  C   UNL     1       4.594  -1.421  10.751  1.00  0.00     0.004 A 
ATOM     14  C   UNL     1       3.966  -2.008  11.849  1.00  0.00    -0.051 A 
ATOM     15  C   UNL     1       4.750  -2.857  12.791  1.00  0.00     0.044 C 
ENDBRANCH   7   9
ENDBRANCH   1   7
BRANCH   4  16
ATOM     16  N   UNL     1       4.214   2.373   5.432  1.00  0.00     0.066 N 
ATOM     17  O   UNL     1       3.918   3.116   4.465  1.00  0.00    -0.258 OA
ATOM     18  O   UNL     1       5.332   2.425   5.997  1.00  0.00    -0.258 OA
ENDBRANCH   4  16
BRANCH   5  19
ATOM     19  O   UNL     1       0.985  -1.151   4.643  1.00  0.00    -0.504 OA
ATOM     20  H   UNL     1       0.507  -1.826   5.152  1.00  0.00     0.293 HD
ENDBRANCH   5  19
BRANCH   6  21
ATOM     21  O   UNL     1       2.851   0.641   3.679  1.00  0.00    -0.500 OA
ATOM     22  H   UNL     1       3.772   0.913   3.539  1.00  0.00     0.294 HD
ENDBRANCH   6  21
TORSDOF 5
ENDMDL
MODEL 5
REMARK VINA RESULT:    -4.448      3.573      7.226
REMARK INTER + INTRA:          -6.255
REMARK INTER:                  -5.272
REMARK INTRA:                  -0.983
REMARK UNBOUND:                -0.767
REMARK SMILES Cc1ccc(C(=O)c2cc(O)c(O)c([N+](=O)[O-])c2)cc1
REMARK SMILES IDX 8 1 18 2 9 3 14 4 10 5 12 6 6 7 7 8 5 9 4 10 19 11 3 12
REMARK SMILES IDX 20 13 2 14 1 15 15 16 17 17 16 18 11 19 13 21
REMARK H PARENT 11 20 13 22
ROOT
ATOM      1  C   UNL     1       3.602  -0.829  11.136  1.00  0.00     0.033 A 
ATOM      2  C   UNL     1       4.320   0.136  11.804  1.00  0.00     0.102 A 
ATOM      3  C   UNL     1       3.513  -2.129  11.573  1.00  0.00     0.063 A 
ATOM      4  C   UNL     1       4.987  -0.221  12.976  1.00  0.00     0.315 A 
ATOM      5  C   UNL     1       4.180  -2.486  12.745  1.00  0.00     0.165 A 
ATOM      6  C   UNL     1       4.917  -1.531  13.447  1.00  0.00     0.237 A 
ENDROOT
BRANCH   1   7
ATOM      7  C   UNL     1       2.887  -0.447   9.881  1.00  0.00     0.193 C 
ATOM      8  O   UNL     1       1.671  -0.682   9.824  1.00  0.00    -0.289 OA
BRANCH   7   9
ATOM      9  C   UNL     1       3.567   0.175   8.756  1.00  0.00     0.023 A 
ATOM     10  C   UNL     1       3.067   1.356   8.206  1.00  0.00     0.012 A 
ATOM     11  C   UNL     1       4.718  -0.407   8.227  1.00  0.00     0.012 A 
ATOM     12  C   UNL     1       3.719   1.954   7.128  1.00  0.00     0.004 A 
ATOM     13  C   UNL     1       5.371   0.190   7.147  1.00  0.00     0.004 A 
ATOM     14  C   UNL     1       4.871   1.371   6.598  1.00  0.00    -0.051 A 
ATOM     15  C   UNL     1       5.567   2.009   5.444  1.00  0.00     0.044 C 
ENDBRANCH   7   9
ENDBRANCH   1   7
BRANCH   4  16
ATOM     16  N   UNL     1       5.734   0.766  13.677  1.00  0.00     0.066 N 
ATOM     17  O   UNL     1       5.835   0.676  14.924  1.00  0.00    -0.258 OA
ATOM     18  O   UNL     1       6.268   1.695  13.028  1.00  0.00    -0.258 OA
ENDBRANCH   4  16
BRANCH   5  19
ATOM     19  O   UNL     1       4.102  -3.770  13.194  1.00  0.00    -0.504 OA
ATOM     20  H   UNL     1       4.883  -3.974  13.736  1.00  0.00     0.293 HD
ENDBRANCH   5  19
BRANCH   6  21
ATOM     21  O   UNL     1       5.565  -1.892  14.593  1.00  0.00    -0.500 OA
ATOM     22  H   UNL     1       6.520  -1.928  14.430  1.00  0.00     0.294 HD
ENDBRANCH   6  21
TORSDOF 5
ENDMDL
MODEL 6
REMARK VINA RESULT:    -4.434      1.230      2.626
REMARK INTER + INTRA:          -6.238
REMARK INTER:                  -5.640
REMARK INTRA:                  -0.598
REMARK UNBOUND:                -0.767
REMARK SMILES Cc1ccc(C(=O)c2cc(O)c(O)c([N+](=O)[O-])c2)cc1
REMARK SMILES IDX 8 1 18 2 9 3 14 4 10 5 12 6 6 7 7 8 5 9 4 10 19 11 3 12
REMARK SMILES IDX 20 13 2 14 1 15 15 16 17 17 16 18 11 19 13 21
REMARK H PARENT 11 20 13 22
ROOT
ATOM      1  C   UNL     1       2.740   0.178   7.505  1.00  0.00     0.033 A 
ATOM      2  C   UNL     1       2.910   0.816   6.298  1.00  0.00     0.102 A 
ATOM      3  C   UNL     1       1.881  -0.882   7.674  1.00  0.00     0.063 A 
ATOM      4  C   UNL     1       2.180   0.366   5.197  1.00  0.00     0.315 A 
ATOM      5  C   UNL     1       1.151  -1.331   6.574  1.00  0.00     0.165 A 
ATOM      6  C   UNL     1       1.301  -0.707   5.335  1.00  0.00     0.237 A 
ENDROOT
BRANCH   1   7
ATOM      7  C   UNL     1       3.521   0.659   8.684  1.00  0.00     0.193 C 
ATOM      8  O   UNL     1       3.948   1.824   8.646  1.00  0.00    -0.289 OA
BRANCH   7   9
ATOM      9  C   UNL     1       3.785  -0.181   9.840  1.00  0.00     0.023 A 
ATOM     10  C   UNL     1       5.062  -0.703  10.046  1.00  0.00     0.012 A 
ATOM     11  C   UNL     1       2.761  -0.466  10.744  1.00  0.00     0.012 A 
ATOM     12  C   UNL     1       5.315  -1.510  11.156  1.00  0.00     0.004 A 
ATOM     13  C   UNL     1       3.014  -1.272  11.854  1.00  0.00     0.004 A 
ATOM     14  C   UNL     1       4.291  -1.794  12.061  1.00  0.00    -0.051 A 
ATOM     15  C   UNL     1       4.562  -2.657  13.246  1.00  0.00     0.044 C 
ENDBRANCH   7   9
ENDBRANCH   1   7
BRANCH   4  16
ATOM     16  N   UNL     1       2.346   1.015   3.943  1.00  0.00     0.066 N 
ATOM     17  O   UNL     1       2.646   2.233   3.925  1.00  0.00    -0.258 OA
ATOM     18  O   UNL     1       2.189   0.351   2.892  1.00  0.00    -0.258 OA
ENDBRANCH   4  16
BRANCH   5  19
ATOM     19  O   UNL     1       0.295  -2.381   6.723  1.00  0.00    -0.504 OA
ATOM     20  H   UNL     1      -0.568  -2.155   6.338  1.00  0.00     0.293 HD
ENDBRANCH   5  19
BRANCH   6  21
ATOM     21  O   UNL     1       0.581  -1.156   4.266  1.00  0.00    -0.500 OA
ATOM     22  H   UNL     1       0.829  -2.073   4.068  1.00  0.00     0.294 HD
ENDBRANCH   6  21
TORSDOF 5
ENDMDL
MODEL 7
REMARK VINA RESULT:    -4.419      3.749      6.844
REMARK INTER + INTRA:          -6.220
REMARK INTER:                  -5.241
REMARK INTRA:                  -0.979
REMARK UNBOUND:                -0.767
REMARK SMILES Cc1ccc(C(=O)c2cc(O)c(O)c([N+](=O)[O-])c2)cc1
REMARK SMILES IDX 8 1 18 2 9 3 14 4 10 5 12 6 6 7 7 8 5 9 4 10 19 11 3 12
REMARK SMILES IDX 20 13 2 14 1 15 15 16 17 17 16 18 11 19 13 21
REMARK H PARENT 11 20 13 22
ROOT
ATOM      1  C   UNL     1       3.684  -0.782  11.148  1.00  0.00     0.033 A 
ATOM      2  C   UNL     1       3.665  -2.079  11.608  1.00  0.00     0.102 A 
ATOM      3  C   UNL     1       4.339   0.232  11.805  1.00  0.00     0.063 A 
ATOM      4  C   UNL     1       4.341  -2.378  12.790  1.00  0.00     0.315 A 
ATOM      5  C   UNL     1       5.015  -0.066  12.989  1.00  0.00     0.165 A 
ATOM      6  C   UNL     1       5.016  -1.372  13.481  1.00  0.00     0.237 A 
ENDROOT
BRANCH   1   7
ATOM      7  C   UNL     1       2.960  -0.462   9.881  1.00  0.00     0.193 C 
ATOM      8  O   UNL     1       1.756  -0.755   9.825  1.00  0.00    -0.289 OA
BRANCH   7   9
ATOM      9  C   UNL     1       3.616   0.167   8.746  1.00  0.00     0.023 A 
ATOM     10  C   UNL     1       4.775  -0.396   8.210  1.00  0.00     0.012 A 
ATOM     11  C   UNL     1       3.086   1.332   8.192  1.00  0.00     0.012 A 
ATOM     12  C   UNL     1       5.403   0.207   7.121  1.00  0.00     0.004 A 
ATOM     13  C   UNL     1       3.715   1.936   7.103  1.00  0.00     0.004 A 
ATOM     14  C   UNL     1       4.874   1.373   6.567  1.00  0.00    -0.051 A 
ATOM     15  C   UNL     1       5.547   2.019   5.404  1.00  0.00     0.044 C 
ENDBRANCH   7   9
ENDBRANCH   1   7
BRANCH   4  16
ATOM     16  N   UNL     1       4.330  -3.714  13.277  1.00  0.00     0.066 N 
ATOM     17  O   UNL     1       4.202  -4.656  12.459  1.00  0.00    -0.258 OA
ATOM     18  O   UNL     1       4.451  -3.910  14.509  1.00  0.00    -0.258 OA
ENDBRANCH   4  16
BRANCH   5  19
ATOM     19  O   UNL     1       5.670   0.927  13.653  1.00  0.00    -0.504 OA
ATOM     20  H   UNL     1       5.695   0.722  14.602  1.00  0.00     0.293 HD
ENDBRANCH   5  19
BRANCH   6  21
ATOM     21  O   UNL     1       5.681  -1.651  14.640  1.00  0.00    -0.500 OA
ATOM     22  H   UNL     1       5.525  -2.575  14.890  1.00  0.00     0.294 HD
ENDBRANCH   6  21
TORSDOF 5
ENDMDL
MODEL 8
REMARK VINA RESULT:    -4.406      3.633      4.510
REMARK INTER + INTRA:          -6.203
REMARK INTER:                  -5.213
REMARK INTRA:                  -0.989
REMARK UNBOUND:                -0.767
REMARK SMILES Cc1ccc(C(=O)c2cc(O)c(O)c([N+](=O)[O-])c2)cc1
REMARK SMILES IDX 8 1 18 2 9 3 14 4 10 5 12 6 6 7 7 8 5 9 4 10 19 11 3 12
REMARK SMILES IDX 20 13 2 14 1 15 15 16 17 17 16 18 11 19 13 21
REMARK H PARENT 11 20 13 22
ROOT
ATOM      1  C   UNL     1       5.211  -0.794  10.536  1.00  0.00     0.033 A 
ATOM      2  C   UNL     1       4.209  -0.423   9.670  1.00  0.00     0.102 A 
ATOM      3  C   UNL     1       6.506  -1.014  10.128  1.00  0.00     0.063 A 
ATOM      4  C   UNL     1       4.520  -0.260   8.320  1.00  0.00     0.315 A 
ATOM      5  C   UNL     1       6.817  -0.852   8.778  1.00  0.00     0.165 A 
ATOM      6  C   UNL     1       5.823  -0.474   7.874  1.00  0.00     0.237 A 
ENDROOT
BRANCH   1   7
ATOM      7  C   UNL     1       4.879  -0.969  11.982  1.00  0.00     0.193 C 
ATOM      8  O   UNL     1       4.281  -2.006  12.307  1.00  0.00    -0.289 OA
BRANCH   7   9
ATOM      9  C   UNL     1       5.230   0.021  12.988  1.00  0.00     0.023 A 
ATOM     10  C   UNL     1       6.000  -0.348  14.091  1.00  0.00     0.012 A 
ATOM     11  C   UNL     1       4.797   1.340  12.849  1.00  0.00     0.012 A 
ATOM     12  C   UNL     1       6.337   0.601  15.055  1.00  0.00     0.004 A 
ATOM     13  C   UNL     1       5.134   2.290  13.814  1.00  0.00     0.004 A 
ATOM     14  C   UNL     1       5.904   1.921  14.917  1.00  0.00    -0.051 A 
ATOM     15  C   UNL     1       6.263   2.935  15.949  1.00  0.00     0.044 C 
ENDBRANCH   7   9
ENDBRANCH   1   7
BRANCH   4  16
ATOM     16  N   UNL     1       3.494   0.124   7.413  1.00  0.00     0.066 N 
ATOM     17  O   UNL     1       2.662   0.993   7.772  1.00  0.00    -0.258 OA
ATOM     18  O   UNL     1       3.451  -0.415   6.283  1.00  0.00    -0.258 OA
ENDBRANCH   4  16
BRANCH   5  19
ATOM     19  O   UNL     1       8.095  -1.064   8.356  1.00  0.00    -0.504 OA
ATOM     20  H   UNL     1       8.269  -0.530   7.563  1.00  0.00     0.293 HD
ENDBRANCH   5  19
BRANCH   6  21
ATOM     21  O   UNL     1       6.140  -0.318   6.555  1.00  0.00    -0.500 OA
ATOM     22  H   UNL     1       5.843  -1.094   6.055  1.00  0.00     0.294 HD
ENDBRANCH   6  21
TORSDOF 5
ENDMDL
MODEL 9
REMARK VINA RESULT:    -4.403      3.692      6.548
REMARK INTER + INTRA:          -6.200
REMARK INTER:                  -5.217
REMARK INTRA:                  -0.983
REMARK UNBOUND:                -0.767
REMARK SMILES Cc1ccc(C(=O)c2cc(O)c(O)c([N+](=O)[O-])c2)cc1
REMARK SMILES IDX 8 1 18 2 9 3 14 4 10 5 12 6 6 7 7 8 5 9 4 10 19 11 3 12
REMARK SMILES IDX 20 13 2 14 1 15 15 16 17 17 16 18 11 19 13 21
REMARK H PARENT 11 20 13 22
ROOT
ATOM      1  C   UNL     1       4.933  -0.910  10.714  1.00  0.00     0.033 A 
ATOM      2  C   UNL     1       4.484  -2.148  11.114  1.00  0.00     0.102 A 
ATOM      3  C   UNL     1       5.429   0.024  11.593  1.00  0.00     0.063 A 
ATOM      4  C   UNL     1       4.536  -2.469  12.470  1.00  0.00     0.315 A 
ATOM      5  C   UNL     1       5.480  -0.298  12.949  1.00  0.00     0.165 A 
ATOM      6  C   UNL     1       5.034  -1.545  13.388  1.00  0.00     0.237 A 
ENDROOT
BRANCH   1   7
ATOM      7  C   UNL     1       4.877  -0.565   9.262  1.00  0.00     0.193 C 
ATOM      8  O   UNL     1       5.928  -0.179   8.728  1.00  0.00    -0.289 OA
BRANCH   7   9
ATOM      9  C   UNL     1       3.654  -0.668   8.482  1.00  0.00     0.023 A 
ATOM     10  C   UNL     1       3.646  -1.392   7.289  1.00  0.00     0.012 A 
ATOM     11  C   UNL     1       2.488  -0.045   8.927  1.00  0.00     0.012 A 
ATOM     12  C   UNL     1       2.472  -1.491   6.542  1.00  0.00     0.004 A 
ATOM     13  C   UNL     1       1.314  -0.144   8.180  1.00  0.00     0.004 A 
ATOM     14  C   UNL     1       1.306  -0.867   6.987  1.00  0.00    -0.051 A 
ATOM     15  C   UNL     1       0.053  -0.972   6.187  1.00  0.00     0.044 C 
ENDBRANCH   7   9
ENDBRANCH   1   7
BRANCH   4  16
ATOM     16  N   UNL     1       4.077  -3.745  12.899  1.00  0.00     0.066 N 
ATOM     17  O   UNL     1       3.118  -4.279  12.291  1.00  0.00    -0.258 OA
ATOM     18  O   UNL     1       4.644  -4.299  13.870  1.00  0.00    -0.258 OA
ENDBRANCH   4  16
BRANCH   5  19
ATOM     19  O   UNL     1       5.970   0.615  13.835  1.00  0.00    -0.504 OA
ATOM     20  H   UNL     1       6.941   0.604  13.811  1.00  0.00     0.293 HD
ENDBRANCH   5  19
BRANCH   6  21
ATOM     21  O   UNL     1       5.090  -1.848  14.718  1.00  0.00    -0.500 OA
ATOM     22  H   UNL     1       5.359  -2.773  14.830  1.00  0.00     0.294 HD
ENDBRANCH   6  21
TORSDOF 5
ENDMDL
