MODEL 1
REMARK VINA RESULT:    -5.299      0.000      0.000
REMARK INTER + INTRA:          -7.297
REMARK INTER:                  -6.538
REMARK INTRA:                  -0.759
REMARK UNBOUND:                -0.759
REMARK SMILES Cc1ccc(C(=O)c2cc(O)c(O)c([N+](=O)[O-])c2)cc1
REMARK SMILES IDX 8 1 18 2 9 3 14 4 10 5 12 6 6 7 7 8 5 9 4 10 19 11 3 12
REMARK SMILES IDX 20 13 2 14 1 15 15 16 17 17 16 18 11 19 13 21
REMARK H PARENT 11 20 13 22
ROOT
ATOM      1  C   UNL     1      -5.151  -6.203  -0.274  1.00  0.00     0.033 A 
ATOM      2  C   UNL     1      -5.320  -5.331  -1.324  1.00  0.00     0.102 A 
ATOM      3  C   UNL     1      -4.092  -6.123   0.599  1.00  0.00     0.063 A 
ATOM      4  C   UNL     1      -4.376  -4.321  -1.510  1.00  0.00     0.315 A 
ATOM      5  C   UNL     1      -3.148  -5.114   0.413  1.00  0.00     0.165 A 
ATOM      6  C   UNL     1      -3.290  -4.211  -0.643  1.00  0.00     0.237 A 
ENDROOT
BRANCH   1   7
ATOM      7  C   UNL     1      -6.161  -7.285  -0.074  1.00  0.00     0.193 C 
ATOM      8  O   UNL     1      -6.404  -7.628   1.093  1.00  0.00    -0.289 OA
BRANCH   7   9
ATOM      9  C   UNL     1      -6.846  -7.927  -1.184  1.00  0.00     0.023 A 
ATOM     10  C   UNL     1      -6.365  -9.131  -1.700  1.00  0.00     0.012 A 
ATOM     11  C   UNL     1      -7.986  -7.339  -1.734  1.00  0.00     0.012 A 
ATOM     12  C   UNL     1      -7.023  -9.746  -2.764  1.00  0.00     0.004 A 
ATOM     13  C   UNL     1      -8.644  -7.954  -2.800  1.00  0.00     0.004 A 
ATOM     14  C   UNL     1      -8.162  -9.158  -3.315  1.00  0.00    -0.051 A 
ATOM     15  C   UNL     1      -8.864  -9.816  -4.454  1.00  0.00     0.044 C 
ENDBRANCH   7   9
ENDBRANCH   1   7
BRANCH   4  16
ATOM     16  N   UNL     1      -4.538  -3.411  -2.591  1.00  0.00     0.066 N 
ATOM     17  O   UNL     1      -5.698  -3.137  -2.984  1.00  0.00    -0.258 OA
ATOM     18  O   UNL     1      -3.518  -2.910  -3.119  1.00  0.00    -0.258 OA
ENDBRANCH   4  16
BRANCH   5  19
ATOM     19  O   UNL     1      -2.092  -5.019   1.269  1.00  0.00    -0.504 OA
ATOM     20  H   UNL     1      -2.226  -4.266   1.868  1.00  0.00     0.293 HD
ENDBRANCH   5  19
BRANCH   6  21
ATOM     21  O   UNL     1      -2.361  -3.227  -0.815  1.00  0.00    -0.500 OA
ATOM     22  H   UNL     1      -2.766  -2.471  -1.265  1.00  0.00     0.294 HD
ENDBRANCH   6  21
TORSDOF 5
ENDMDL
MODEL 2
REMARK VINA RESULT:    -5.283      1.979      3.521
REMARK INTER + INTRA:          -7.277
REMARK INTER:                  -6.527
REMARK INTRA:                  -0.750
REMARK UNBOUND:                -0.759
REMARK SMILES Cc1ccc(C(=O)c2cc(O)c(O)c([N+](=O)[O-])c2)cc1
REMARK SMILES IDX 8 1 18 2 9 3 14 4 10 5 12 6 6 7 7 8 5 9 4 10 19 11 3 12
REMARK SMILES IDX 20 13 2 14 1 15 15 16 17 17 16 18 11 19 13 21
REMARK H PARENT 11 20 13 22
ROOT
ATOM      1  C   UNL     1      -4.885  -6.101  -2.135  1.00  0.00     0.033 A 
ATOM      2  C   UNL     1      -4.208  -6.425  -0.982  1.00  0.00     0.102 A 
ATOM      3  C   UNL     1      -4.734  -4.894  -2.775  1.00  0.00     0.063 A 
ATOM      4  C   UNL     1      -3.329  -5.488  -0.439  1.00  0.00     0.315 A 
ATOM      5  C   UNL     1      -3.855  -3.956  -2.232  1.00  0.00     0.165 A 
ATOM      6  C   UNL     1      -3.152  -4.253  -1.063  1.00  0.00     0.237 A 
ENDROOT
BRANCH   1   7
ATOM      7  C   UNL     1      -5.826  -7.105  -2.716  1.00  0.00     0.193 C 
ATOM      8  O   UNL     1      -5.936  -7.133  -3.951  1.00  0.00    -0.289 OA
BRANCH   7   9
ATOM      9  C   UNL     1      -6.594  -8.023  -1.891  1.00  0.00     0.023 A 
ATOM     10  C   UNL     1      -7.911  -7.716  -1.547  1.00  0.00     0.012 A 
ATOM     11  C   UNL     1      -6.015  -9.210  -1.444  1.00  0.00     0.012 A 
ATOM     12  C   UNL     1      -8.648  -8.597  -0.755  1.00  0.00     0.004 A 
ATOM     13  C   UNL     1      -6.752 -10.092  -0.652  1.00  0.00     0.004 A 
ATOM     14  C   UNL     1      -8.069  -9.786  -0.308  1.00  0.00    -0.051 A 
ATOM     15  C   UNL     1      -8.856 -10.726   0.539  1.00  0.00     0.044 C 
ENDBRANCH   7   9
ENDBRANCH   1   7
BRANCH   4  16
ATOM     16  N   UNL     1      -2.622  -5.808   0.752  1.00  0.00     0.066 N 
ATOM     17  O   UNL     1      -2.327  -7.007   0.978  1.00  0.00    -0.258 OA
ATOM     18  O   UNL     1      -2.313  -4.884   1.541  1.00  0.00    -0.258 OA
ENDBRANCH   4  16
BRANCH   5  19
ATOM     19  O   UNL     1      -3.692  -2.754  -2.853  1.00  0.00    -0.504 OA
ATOM     20  H   UNL     1      -3.812  -2.036  -2.209  1.00  0.00     0.293 HD
ENDBRANCH   5  19
BRANCH   6  21
ATOM     21  O   UNL     1      -2.295  -3.328  -0.542  1.00  0.00    -0.500 OA
ATOM     22  H   UNL     1      -2.789  -2.700   0.008  1.00  0.00     0.294 HD
ENDBRANCH   6  21
TORSDOF 5
ENDMDL
MODEL 3
REMARK VINA RESULT:    -5.042      1.772      2.197
REMARK INTER + INTRA:          -6.980
REMARK INTER:                  -6.342
REMARK INTRA:                  -0.638
REMARK UNBOUND:                -0.759
REMARK SMILES Cc1ccc(C(=O)c2cc(O)c(O)c([N+](=O)[O-])c2)cc1
REMARK SMILES IDX 8 1 18 2 9 3 14 4 10 5 12 6 6 7 7 8 5 9 4 10 19 11 3 12
REMARK SMILES IDX 20 13 2 14 1 15 15 16 17 17 16 18 11 19 13 21
REMARK H PARENT 11 20 13 22
ROOT
ATOM      1  C   UNL     1      -3.682  -6.627  -1.226  1.00  0.00     0.033 A 
ATOM      2  C   UNL     1      -4.017  -5.646  -2.131  1.00  0.00     0.102 A 
ATOM      3  C   UNL     1      -3.065  -6.357  -0.028  1.00  0.00     0.063 A 
ATOM      4  C   UNL     1      -3.718  -4.320  -1.818  1.00  0.00     0.315 A 
ATOM      5  C   UNL     1      -2.765  -5.031   0.285  1.00  0.00     0.165 A 
ATOM      6  C   UNL     1      -3.092  -4.012  -0.610  1.00  0.00     0.237 A 
ENDROOT
BRANCH   1   7
ATOM      7  C   UNL     1      -4.002  -8.047  -1.561  1.00  0.00     0.193 C 
ATOM      8  O   UNL     1      -3.089  -8.740  -2.035  1.00  0.00    -0.289 OA
BRANCH   7   9
ATOM      9  C   UNL     1      -5.322  -8.620  -1.350  1.00  0.00     0.023 A 
ATOM     10  C   UNL     1      -6.455  -7.809  -1.430  1.00  0.00     0.012 A 
ATOM     11  C   UNL     1      -5.456  -9.979  -1.067  1.00  0.00     0.012 A 
ATOM     12  C   UNL     1      -7.721  -8.359  -1.227  1.00  0.00     0.004 A 
ATOM     13  C   UNL     1      -6.722 -10.529  -0.865  1.00  0.00     0.004 A 
ATOM     14  C   UNL     1      -7.855  -9.719  -0.945  1.00  0.00    -0.051 A 
ATOM     15  C   UNL     1      -9.208 -10.305  -0.727  1.00  0.00     0.044 C 
ENDBRANCH   7   9
ENDBRANCH   1   7
BRANCH   4  16
ATOM     16  N   UNL     1      -4.059  -3.295  -2.743  1.00  0.00     0.066 N 
ATOM     17  O   UNL     1      -5.263  -3.140  -3.059  1.00  0.00    -0.258 OA
ATOM     18  O   UNL     1      -3.147  -2.577  -3.215  1.00  0.00    -0.258 OA
ENDBRANCH   4  16
BRANCH   5  19
ATOM     19  O   UNL     1      -2.154  -4.745   1.469  1.00  0.00    -0.504 OA
ATOM     20  H   UNL     1      -2.817  -4.714   2.178  1.00  0.00     0.293 HD
ENDBRANCH   5  19
BRANCH   6  21
ATOM     21  O   UNL     1      -2.795  -2.719  -0.293  1.00  0.00    -0.500 OA
ATOM     22  H   UNL     1      -1.853  -2.646  -0.071  1.00  0.00     0.294 HD
ENDBRANCH   6  21
TORSDOF 5
ENDMDL
MODEL 4
REMARK VINA RESULT:    -5.016      1.646      3.107
REMARK INTER + INTRA:          -6.947
REMARK INTER:                  -6.208
REMARK INTRA:                  -0.739
REMARK UNBOUND:                -0.759
REMARK SMILES Cc1ccc(C(=O)c2cc(O)c(O)c([N+](=O)[O-])c2)cc1
REMARK SMILES IDX 8 1 18 2 9 3 14 4 10 5 12 6 6 7 7 8 5 9 4 10 19 11 3 12
REMARK SMILES IDX 20 13 2 14 1 15 15 16 17 17 16 18 11 19 13 21
REMARK H PARENT 11 20 13 22
ROOT
ATOM      1  C   UNL     1      -5.646  -4.868  -1.012  1.00  0.00     0.033 A 
ATOM      2  C   UNL     1      -4.848  -5.275   0.032  1.00  0.00     0.102 A 
ATOM      3  C   UNL     1      -5.192  -4.060  -2.027  1.00  0.00     0.063 A 
ATOM      4  C   UNL     1      -3.520  -4.849   0.061  1.00  0.00     0.315 A 
ATOM      5  C   UNL     1      -3.864  -3.634  -1.998  1.00  0.00     0.165 A 
ATOM      6  C   UNL     1      -3.028  -4.029  -0.953  1.00  0.00     0.237 A 
ENDROOT
BRANCH   1   7
ATOM      7  C   UNL     1      -7.068  -5.324  -1.044  1.00  0.00     0.193 C 
ATOM      8  O   UNL     1      -7.922  -4.559  -0.570  1.00  0.00    -0.289 OA
BRANCH   7   9
ATOM      9  C   UNL     1      -7.464  -6.607  -1.602  1.00  0.00     0.023 A 
ATOM     10  C   UNL     1      -8.727  -6.759  -2.175  1.00  0.00     0.012 A 
ATOM     11  C   UNL     1      -6.581  -7.686  -1.566  1.00  0.00     0.012 A 
ATOM     12  C   UNL     1      -9.106  -7.990  -2.710  1.00  0.00     0.004 A 
ATOM     13  C   UNL     1      -6.959  -8.917  -2.101  1.00  0.00     0.004 A 
ATOM     14  C   UNL     1      -8.222  -9.069  -2.674  1.00  0.00    -0.051 A 
ATOM     15  C   UNL     1      -8.629 -10.385  -3.245  1.00  0.00     0.044 C 
ENDBRANCH   7   9
ENDBRANCH   1   7
BRANCH   4  16
ATOM     16  N   UNL     1      -2.683  -5.262   1.134  1.00  0.00     0.066 N 
ATOM     17  O   UNL     1      -2.679  -6.471   1.469  1.00  0.00    -0.258 OA
ATOM     18  O   UNL     1      -1.973  -4.406   1.712  1.00  0.00    -0.258 OA
ENDBRANCH   4  16
BRANCH   5  19
ATOM     19  O   UNL     1      -3.397  -2.832  -2.996  1.00  0.00    -0.504 OA
ATOM     20  H   UNL     1      -2.474  -2.590  -2.814  1.00  0.00     0.293 HD
ENDBRANCH   5  19
BRANCH   6  21
ATOM     21  O   UNL     1      -1.730  -3.606  -0.936  1.00  0.00    -0.500 OA
ATOM     22  H   UNL     1      -1.660  -2.791  -0.415  1.00  0.00     0.294 HD
ENDBRANCH   6  21
TORSDOF 5
ENDMDL
MODEL 5
REMARK VINA RESULT:    -4.844      3.606      4.522
REMARK INTER + INTRA:          -6.735
REMARK INTER:                  -5.727
REMARK INTRA:                  -1.008
REMARK UNBOUND:                -0.759
REMARK SMILES Cc1ccc(C(=O)c2cc(O)c(O)c([N+](=O)[O-])c2)cc1
REMARK SMILES IDX 8 1 18 2 9 3 14 4 10 5 12 6 6 7 7 8 5 9 4 10 19 11 3 12
REMARK SMILES IDX 20 13 2 14 1 15 15 16 17 17 16 18 11 19 13 21
REMARK H PARENT 11 20 13 22
ROOT
ATOM      1  C   UNL     1      -6.515  -9.207  -1.462  1.00  0.00     0.033 A 
ATOM      2  C   UNL     1      -6.255  -7.858  -1.394  1.00  0.00     0.102 A 
ATOM      3  C   UNL     1      -5.528 -10.162  -1.396  1.00  0.00     0.063 A 
ATOM      4  C   UNL     1      -4.932  -7.440  -1.251  1.00  0.00     0.315 A 
ATOM      5  C   UNL     1      -4.204  -9.744  -1.254  1.00  0.00     0.165 A 
ATOM      6  C   UNL     1      -3.906  -8.382  -1.181  1.00  0.00     0.237 A 
ENDROOT
BRANCH   1   7
ATOM      7  C   UNL     1      -7.932  -9.655  -1.615  1.00  0.00     0.193 C 
ATOM      8  O   UNL     1      -8.459  -9.505  -2.728  1.00  0.00    -0.289 OA
BRANCH   7   9
ATOM      9  C   UNL     1      -8.686 -10.247  -0.521  1.00  0.00     0.023 A 
ATOM     10  C   UNL     1      -8.805  -9.567   0.691  1.00  0.00     0.012 A 
ATOM     11  C   UNL     1      -9.289 -11.493  -0.684  1.00  0.00     0.012 A 
ATOM     12  C   UNL     1      -9.528 -10.134   1.740  1.00  0.00     0.004 A 
ATOM     13  C   UNL     1     -10.012 -12.062   0.366  1.00  0.00     0.004 A 
ATOM     14  C   UNL     1     -10.132 -11.382   1.578  1.00  0.00    -0.051 A 
ATOM     15  C   UNL     1     -10.904 -11.988   2.700  1.00  0.00     0.044 C 
ENDBRANCH   7   9
ENDBRANCH   1   7
BRANCH   4  16
ATOM     16  N   UNL     1      -4.648  -6.049  -1.178  1.00  0.00     0.066 N 
ATOM     17  O   UNL     1      -5.491  -5.285  -0.648  1.00  0.00    -0.258 OA
ATOM     18  O   UNL     1      -3.564  -5.627  -1.645  1.00  0.00    -0.258 OA
ENDBRANCH   4  16
BRANCH   5  19
ATOM     19  O   UNL     1      -3.213 -10.676  -1.187  1.00  0.00    -0.504 OA
ATOM     20  H   UNL     1      -2.624 -10.472  -0.441  1.00  0.00     0.293 HD
ENDBRANCH   5  19
BRANCH   6  21
ATOM     21  O   UNL     1      -2.608  -7.986  -1.041  1.00  0.00    -0.500 OA
ATOM     22  H   UNL     1      -2.554  -7.269  -0.390  1.00  0.00     0.294 HD
ENDBRANCH   6  21
TORSDOF 5
ENDMDL
MODEL 6
REMARK VINA RESULT:    -4.837      3.701      6.559
REMARK INTER + INTRA:          -6.726
REMARK INTER:                  -5.804
REMARK INTRA:                  -0.922
REMARK UNBOUND:                -0.759
REMARK SMILES Cc1ccc(C(=O)c2cc(O)c(O)c([N+](=O)[O-])c2)cc1
REMARK SMILES IDX 8 1 18 2 9 3 14 4 10 5 12 6 6 7 7 8 5 9 4 10 19 11 3 12
REMARK SMILES IDX 20 13 2 14 1 15 15 16 17 17 16 18 11 19 13 21
REMARK H PARENT 11 20 13 22
ROOT
ATOM      1  C   UNL     1      -6.613  -9.146  -1.326  1.00  0.00     0.033 A 
ATOM      2  C   UNL     1      -7.331  -9.297  -2.489  1.00  0.00     0.102 A 
ATOM      3  C   UNL     1      -7.012  -9.687  -0.127  1.00  0.00     0.063 A 
ATOM      4  C   UNL     1      -8.516 -10.033  -2.451  1.00  0.00     0.315 A 
ATOM      5  C   UNL     1      -8.197 -10.423  -0.088  1.00  0.00     0.165 A 
ATOM      6  C   UNL     1      -8.949 -10.596  -1.251  1.00  0.00     0.237 A 
ENDROOT
BRANCH   1   7
ATOM      7  C   UNL     1      -5.344  -8.358  -1.367  1.00  0.00     0.193 C 
ATOM      8  O   UNL     1      -4.296  -8.951  -1.069  1.00  0.00    -0.289 OA
BRANCH   7   9
ATOM      9  C   UNL     1      -5.311  -6.953  -1.738  1.00  0.00     0.023 A 
ATOM     10  C   UNL     1      -6.314  -6.091  -1.295  1.00  0.00     0.012 A 
ATOM     11  C   UNL     1      -4.276  -6.466  -2.536  1.00  0.00     0.012 A 
ATOM     12  C   UNL     1      -6.282  -4.742  -1.650  1.00  0.00     0.004 A 
ATOM     13  C   UNL     1      -4.243  -5.117  -2.892  1.00  0.00     0.004 A 
ATOM     14  C   UNL     1      -5.246  -4.255  -2.449  1.00  0.00    -0.051 A 
ATOM     15  C   UNL     1      -5.213  -2.814  -2.830  1.00  0.00     0.044 C 
ENDBRANCH   7   9
ENDBRANCH   1   7
BRANCH   4  16
ATOM     16  N   UNL     1      -9.269 -10.198  -3.646  1.00  0.00     0.066 N 
ATOM     17  O   UNL     1      -9.947 -11.243  -3.795  1.00  0.00    -0.258 OA
ATOM     18  O   UNL     1      -9.234  -9.295  -4.514  1.00  0.00    -0.258 OA
ENDBRANCH   4  16
BRANCH   5  19
ATOM     19  O   UNL     1      -8.607 -10.967   1.092  1.00  0.00    -0.504 OA
ATOM     20  H   UNL     1      -9.398 -11.511   0.941  1.00  0.00     0.293 HD
ENDBRANCH   5  19
BRANCH   6  21
ATOM     21  O   UNL     1     -10.106 -11.318  -1.200  1.00  0.00    -0.500 OA
ATOM     22  H   UNL     1     -10.132 -11.834  -0.380  1.00  0.00     0.294 HD
ENDBRANCH   6  21
TORSDOF 5
ENDMDL
MODEL 7
REMARK VINA RESULT:    -4.823      3.591      7.179
REMARK INTER + INTRA:          -6.710
REMARK INTER:                  -5.783
REMARK INTRA:                  -0.926
REMARK UNBOUND:                -0.759
REMARK SMILES Cc1ccc(C(=O)c2cc(O)c(O)c([N+](=O)[O-])c2)cc1
REMARK SMILES IDX 8 1 18 2 9 3 14 4 10 5 12 6 6 7 7 8 5 9 4 10 19 11 3 12
REMARK SMILES IDX 20 13 2 14 1 15 15 16 17 17 16 18 11 19 13 21
REMARK H PARENT 11 20 13 22
ROOT
ATOM      1  C   UNL     1      -7.846  -7.925  -1.918  1.00  0.00     0.033 A 
ATOM      2  C   UNL     1      -8.132  -8.844  -0.935  1.00  0.00     0.102 A 
ATOM      3  C   UNL     1      -8.144  -8.133  -3.243  1.00  0.00     0.063 A 
ATOM      4  C   UNL     1      -8.752 -10.039  -1.299  1.00  0.00     0.315 A 
ATOM      5  C   UNL     1      -8.763  -9.329  -3.608  1.00  0.00     0.165 A 
ATOM      6  C   UNL     1      -9.068 -10.282  -2.635  1.00  0.00     0.237 A 
ENDROOT
BRANCH   1   7
ATOM      7  C   UNL     1      -7.181  -6.645  -1.528  1.00  0.00     0.193 C 
ATOM      8  O   UNL     1      -7.791  -5.592  -1.766  1.00  0.00    -0.289 OA
BRANCH   7   9
ATOM      9  C   UNL     1      -5.874  -6.607  -0.893  1.00  0.00     0.023 A 
ATOM     10  C   UNL     1      -5.630  -5.712   0.149  1.00  0.00     0.012 A 
ATOM     11  C   UNL     1      -4.864  -7.467  -1.324  1.00  0.00     0.012 A 
ATOM     12  C   UNL     1      -4.375  -5.676   0.758  1.00  0.00     0.004 A 
ATOM     13  C   UNL     1      -3.609  -7.431  -0.716  1.00  0.00     0.004 A 
ATOM     14  C   UNL     1      -3.364  -6.536   0.326  1.00  0.00    -0.051 A 
ATOM     15  C   UNL     1      -2.024  -6.496   0.976  1.00  0.00     0.044 C 
ENDBRANCH   7   9
ENDBRANCH   1   7
BRANCH   4  16
ATOM     16  N   UNL     1      -9.054 -10.999  -0.294  1.00  0.00     0.066 N 
ATOM     17  O   UNL     1      -8.309 -11.078   0.712  1.00  0.00    -0.258 OA
ATOM     18  O   UNL     1     -10.057 -11.736  -0.442  1.00  0.00    -0.258 OA
ENDBRANCH   4  16
BRANCH   5  19
ATOM     19  O   UNL     1      -9.067  -9.553  -4.918  1.00  0.00    -0.504 OA
ATOM     20  H   UNL     1      -9.460 -10.436  -5.014  1.00  0.00     0.293 HD
ENDBRANCH   5  19
BRANCH   6  21
ATOM     21  O   UNL     1      -9.675 -11.447  -3.004  1.00  0.00    -0.500 OA
ATOM     22  H   UNL     1      -9.682 -12.063  -2.255  1.00  0.00     0.294 HD
ENDBRANCH   6  21
TORSDOF 5
ENDMDL
MODEL 8
REMARK VINA RESULT:    -4.743      2.456      4.269
REMARK INTER + INTRA:          -6.610
REMARK INTER:                  -5.651
REMARK INTRA:                  -0.960
REMARK UNBOUND:                -0.759
REMARK SMILES Cc1ccc(C(=O)c2cc(O)c(O)c([N+](=O)[O-])c2)cc1
REMARK SMILES IDX 8 1 18 2 9 3 14 4 10 5 12 6 6 7 7 8 5 9 4 10 19 11 3 12
REMARK SMILES IDX 20 13 2 14 1 15 15 16 17 17 16 18 11 19 13 21
REMARK H PARENT 11 20 13 22
ROOT
ATOM      1  C   UNL     1      -8.016  -7.982  -1.831  1.00  0.00     0.033 A 
ATOM      2  C   UNL     1      -6.685  -7.771  -1.555  1.00  0.00     0.102 A 
ATOM      3  C   UNL     1      -8.934  -6.961  -1.905  1.00  0.00     0.063 A 
ATOM      4  C   UNL     1      -6.247  -6.465  -1.340  1.00  0.00     0.315 A 
ATOM      5  C   UNL     1      -8.496  -5.654  -1.690  1.00  0.00     0.165 A 
ATOM      6  C   UNL     1      -7.152  -5.405  -1.408  1.00  0.00     0.237 A 
ENDROOT
BRANCH   1   7
ATOM      7  C   UNL     1      -8.486  -9.382  -2.061  1.00  0.00     0.193 C 
ATOM      8  O   UNL     1      -8.678 -10.088  -1.060  1.00  0.00    -0.289 OA
BRANCH   7   9
ATOM      9  C   UNL     1      -8.715  -9.919  -3.392  1.00  0.00     0.023 A 
ATOM     10  C   UNL     1      -9.917 -10.563  -3.687  1.00  0.00     0.012 A 
ATOM     11  C   UNL     1      -7.735  -9.789  -4.375  1.00  0.00     0.012 A 
ATOM     12  C   UNL     1     -10.137 -11.078  -4.964  1.00  0.00     0.004 A 
ATOM     13  C   UNL     1      -7.955 -10.303  -5.654  1.00  0.00     0.004 A 
ATOM     14  C   UNL     1      -9.156 -10.948  -5.948  1.00  0.00    -0.051 A 
ATOM     15  C   UNL     1      -9.392 -11.500  -7.313  1.00  0.00     0.044 C 
ENDBRANCH   7   9
ENDBRANCH   1   7
BRANCH   4  16
ATOM     16  N   UNL     1      -4.874  -6.231  -1.054  1.00  0.00     0.066 N 
ATOM     17  O   UNL     1      -4.006  -6.913  -1.651  1.00  0.00    -0.258 OA
ATOM     18  O   UNL     1      -4.571  -5.351  -0.215  1.00  0.00    -0.258 OA
ENDBRANCH   4  16
BRANCH   5  19
ATOM     19  O   UNL     1      -9.391  -4.629  -1.759  1.00  0.00    -0.504 OA
ATOM     20  H   UNL     1     -10.166  -4.908  -2.274  1.00  0.00     0.293 HD
ENDBRANCH   5  19
BRANCH   6  21
ATOM     21  O   UNL     1      -6.736  -4.123  -1.200  1.00  0.00    -0.500 OA
ATOM     22  H   UNL     1      -6.280  -3.795  -1.992  1.00  0.00     0.294 HD
ENDBRANCH   6  21
TORSDOF 5
ENDMDL
MODEL 9
REMARK VINA RESULT:    -4.682      3.823      7.112
REMARK INTER + INTRA:          -6.535
REMARK INTER:                  -5.534
REMARK INTRA:                  -1.001
REMARK UNBOUND:                -0.759
REMARK SMILES Cc1ccc(C(=O)c2cc(O)c(O)c([N+](=O)[O-])c2)cc1
REMARK SMILES IDX 8 1 18 2 9 3 14 4 10 5 12 6 6 7 7 8 5 9 4 10 19 11 3 12
REMARK SMILES IDX 20 13 2 14 1 15 15 16 17 17 16 18 11 19 13 21
REMARK H PARENT 11 20 13 22
ROOT
ATOM      1  C   UNL     1      -6.907  -9.106  -1.690  1.00  0.00     0.033 A 
ATOM      2  C   UNL     1      -7.588  -9.699  -0.653  1.00  0.00     0.102 A 
ATOM      3  C   UNL     1      -7.303  -9.216  -3.002  1.00  0.00     0.063 A 
ATOM      4  C   UNL     1      -8.732 -10.443  -0.944  1.00  0.00     0.315 A 
ATOM      5  C   UNL     1      -8.446  -9.961  -3.294  1.00  0.00     0.165 A 
ATOM      6  C   UNL     1      -9.161 -10.574  -2.265  1.00  0.00     0.237 A 
ENDROOT
BRANCH   1   7
ATOM      7  C   UNL     1      -5.683  -8.309  -1.378  1.00  0.00     0.193 C 
ATOM      8  O   UNL     1      -4.764  -8.889  -0.780  1.00  0.00    -0.289 OA
BRANCH   7   9
ATOM      9  C   UNL     1      -5.547  -6.910  -1.750  1.00  0.00     0.023 A 
ATOM     10  C   UNL     1      -6.508  -5.984  -1.343  1.00  0.00     0.012 A 
ATOM     11  C   UNL     1      -4.457  -6.493  -2.514  1.00  0.00     0.012 A 
ATOM     12  C   UNL     1      -6.377  -4.642  -1.699  1.00  0.00     0.004 A 
ATOM     13  C   UNL     1      -4.326  -5.151  -2.871  1.00  0.00     0.004 A 
ATOM     14  C   UNL     1      -5.287  -4.224  -2.463  1.00  0.00    -0.051 A 
ATOM     15  C   UNL     1      -5.149  -2.790  -2.845  1.00  0.00     0.044 C 
ENDBRANCH   7   9
ENDBRANCH   1   7
BRANCH   4  16
ATOM     16  N   UNL     1      -9.447 -11.061   0.118  1.00  0.00     0.066 N 
ATOM     17  O   UNL     1      -9.404 -10.542   1.260  1.00  0.00    -0.258 OA
ATOM     18  O   UNL     1     -10.099 -12.105  -0.117  1.00  0.00    -0.258 OA
ENDBRANCH   4  16
BRANCH   5  19
ATOM     19  O   UNL     1      -8.854 -10.080  -4.589  1.00  0.00    -0.504 OA
ATOM     20  H   UNL     1      -9.758 -10.434  -4.614  1.00  0.00     0.293 HD
ENDBRANCH   5  19
BRANCH   6  21
ATOM     21  O   UNL     1     -10.278 -11.299  -2.563  1.00  0.00    -0.500 OA
ATOM     22  H   UNL     1     -10.256 -12.143  -2.084  1.00  0.00     0.294 HD
ENDBRANCH   6  21
TORSDOF 5
ENDMDL
