MODEL 1
REMARK VINA RESULT:    -7.003      0.000      0.000
REMARK INTER + INTRA:          -8.800
REMARK INTER:                  -8.232
REMARK INTRA:                  -0.568
REMARK UNBOUND:                -0.568
REMARK SMILES O=C(O)c1cc(-c2ccc(F)cc2F)ccc1O
REMARK SMILES IDX 6 1 5 2 15 3 4 4 17 5 16 6 7 7 13 8 12 9 8 10 10 11 9 12
REMARK SMILES IDX 14 13 11 14 2 15 1 16 3 17 18 19
REMARK H PARENT 3 18 18 20
ROOT
ATOM      1  C   UNL     1      -5.168  -6.285  -1.204  1.00  0.00    -0.014 A 
ATOM      2  C   UNL     1      -5.220  -5.150  -2.012  1.00  0.00     0.028 A 
ATOM      3  C   UNL     1      -4.184  -6.396  -0.221  1.00  0.00     0.013 A 
ATOM      4  C   UNL     1      -4.289  -4.126  -1.839  1.00  0.00     0.102 A 
ATOM      5  C   UNL     1      -3.306  -4.237  -0.857  1.00  0.00     0.130 A 
ATOM      6  C   UNL     1      -3.253  -5.372  -0.047  1.00  0.00     0.048 A 
ENDROOT
BRANCH   1   7
ATOM      7  C   UNL     1      -6.132  -7.348  -1.384  1.00  0.00     0.018 A 
ATOM      8  C   UNL     1      -7.489  -7.049  -1.516  1.00  0.00     0.133 A 
ATOM      9  C   UNL     1      -8.415  -8.077  -1.689  1.00  0.00     0.079 A 
ATOM     10  C   UNL     1      -5.703  -8.675  -1.426  1.00  0.00     0.015 A 
ATOM     11  C   UNL     1      -7.986  -9.404  -1.731  1.00  0.00     0.126 A 
ATOM     12  C   UNL     1      -6.630  -9.702  -1.599  1.00  0.00     0.040 A 
ATOM     13  F   UNL     1      -7.918  -5.780  -1.475  1.00  0.00    -0.206 F 
ATOM     14  F   UNL     1      -8.875 -10.391  -1.897  1.00  0.00    -0.207 F 
ENDBRANCH   1   7
BRANCH   4  15
ATOM     15  C   UNL     1      -4.362  -2.949  -2.694  1.00  0.00     0.339 C 
ATOM     16  O   UNL     1      -3.446  -2.525  -3.404  1.00  0.00    -0.246 OA
BRANCH  15  17
ATOM     17  O   UNL     1      -5.577  -2.340  -2.636  1.00  0.00    -0.478 OA
ATOM     18  H   UNL     1      -5.830  -2.118  -1.715  1.00  0.00     0.297 HD
ENDBRANCH  15  17
ENDBRANCH   4  15
BRANCH   5  19
ATOM     19  O   UNL     1      -2.387  -3.247  -0.671  1.00  0.00    -0.507 OA
ATOM     20  H   UNL     1      -1.725  -3.290  -1.383  1.00  0.00     0.293 HD
ENDBRANCH   5  19
TORSDOF 4
ENDMDL
MODEL 2
REMARK VINA RESULT:    -6.989      1.232      2.714
REMARK INTER + INTRA:          -8.782
REMARK INTER:                  -8.211
REMARK INTRA:                  -0.572
REMARK UNBOUND:                -0.568
REMARK SMILES O=C(O)c1cc(-c2ccc(F)cc2F)ccc1O
REMARK SMILES IDX 6 1 5 2 15 3 4 4 17 5 16 6 7 7 13 8 12 9 8 10 10 11 9 12
REMARK SMILES IDX 14 13 11 14 2 15 1 16 3 17 18 19
REMARK H PARENT 3 18 18 20
ROOT
ATOM      1  C   UNL     1      -5.160  -6.272  -1.246  1.00  0.00    -0.014 A 
ATOM      2  C   UNL     1      -4.183  -6.435  -0.265  1.00  0.00     0.028 A 
ATOM      3  C   UNL     1      -5.172  -5.122  -2.034  1.00  0.00     0.013 A 
ATOM      4  C   UNL     1      -3.217  -5.447  -0.071  1.00  0.00     0.102 A 
ATOM      5  C   UNL     1      -3.229  -4.297  -0.860  1.00  0.00     0.130 A 
ATOM      6  C   UNL     1      -4.207  -4.134  -1.842  1.00  0.00     0.048 A 
ENDROOT
BRANCH   1   7
ATOM      7  C   UNL     1      -6.164  -7.296  -1.446  1.00  0.00     0.018 A 
ATOM      8  C   UNL     1      -7.510  -6.945  -1.554  1.00  0.00     0.133 A 
ATOM      9  C   UNL     1      -8.474  -7.935  -1.747  1.00  0.00     0.079 A 
ATOM     10  C   UNL     1      -5.782  -8.634  -1.533  1.00  0.00     0.015 A 
ATOM     11  C   UNL     1      -8.092  -9.273  -1.832  1.00  0.00     0.126 A 
ATOM     12  C   UNL     1      -6.746  -9.623  -1.726  1.00  0.00     0.040 A 
ATOM     13  F   UNL     1      -7.894  -5.663  -1.470  1.00  0.00    -0.206 F 
ATOM     14  F   UNL     1      -9.017 -10.224  -2.017  1.00  0.00    -0.207 F 
ENDBRANCH   1   7
BRANCH   4  15
ATOM     15  C   UNL     1      -2.204  -5.637   0.958  1.00  0.00     0.339 C 
ATOM     16  O   UNL     1      -1.981  -4.861   1.891  1.00  0.00    -0.246 OA
BRANCH  15  17
ATOM     17  O   UNL     1      -1.504  -6.791   0.791  1.00  0.00    -0.478 OA
ATOM     18  H   UNL     1      -1.157  -7.134   1.641  1.00  0.00     0.297 HD
ENDBRANCH  15  17
ENDBRANCH   4  15
BRANCH   5  19
ATOM     19  O   UNL     1      -2.293  -3.320  -0.687  1.00  0.00    -0.507 OA
ATOM     20  H   UNL     1      -2.642  -2.482  -1.037  1.00  0.00     0.293 HD
ENDBRANCH   5  19
TORSDOF 4
ENDMDL
MODEL 3
REMARK VINA RESULT:    -6.917      1.745      3.219
REMARK INTER + INTRA:          -8.698
REMARK INTER:                  -7.922
REMARK INTRA:                  -0.776
REMARK UNBOUND:                -0.568
REMARK SMILES O=C(O)c1cc(-c2ccc(F)cc2F)ccc1O
REMARK SMILES IDX 6 1 5 2 15 3 4 4 17 5 16 6 7 7 13 8 12 9 8 10 10 11 9 12
REMARK SMILES IDX 14 13 11 14 2 15 1 16 3 17 18 19
REMARK H PARENT 3 18 18 20
ROOT
ATOM      1  C   UNL     1      -5.102  -6.504  -1.243  1.00  0.00    -0.014 A 
ATOM      2  C   UNL     1      -4.246  -6.622  -0.149  1.00  0.00     0.028 A 
ATOM      3  C   UNL     1      -4.968  -5.429  -2.122  1.00  0.00     0.013 A 
ATOM      4  C   UNL     1      -3.255  -5.664   0.068  1.00  0.00     0.102 A 
ATOM      5  C   UNL     1      -3.121  -4.589  -0.811  1.00  0.00     0.130 A 
ATOM      6  C   UNL     1      -3.978  -4.471  -1.906  1.00  0.00     0.048 A 
ENDROOT
BRANCH   1   7
ATOM      7  C   UNL     1      -6.131  -7.497  -1.468  1.00  0.00     0.018 A 
ATOM      8  C   UNL     1      -5.797  -8.850  -1.536  1.00  0.00     0.133 A 
ATOM      9  C   UNL     1      -6.792  -9.803  -1.753  1.00  0.00     0.079 A 
ATOM     10  C   UNL     1      -7.460  -7.099  -1.615  1.00  0.00     0.015 A 
ATOM     11  C   UNL     1      -8.120  -9.405  -1.901  1.00  0.00     0.126 A 
ATOM     12  C   UNL     1      -8.454  -8.052  -1.831  1.00  0.00     0.040 A 
ATOM     13  F   UNL     1      -4.524  -9.249  -1.400  1.00  0.00    -0.206 F 
ATOM     14  F   UNL     1      -9.075 -10.320  -2.109  1.00  0.00    -0.207 F 
ENDBRANCH   1   7
BRANCH   4  15
ATOM     15  C   UNL     1      -2.371  -5.804   1.216  1.00  0.00     0.339 C 
ATOM     16  O   UNL     1      -1.944  -4.875   1.906  1.00  0.00    -0.246 OA
BRANCH  15  17
ATOM     17  O   UNL     1      -2.049  -7.102   1.467  1.00  0.00    -0.478 OA
ATOM     18  H   UNL     1      -1.084  -7.223   1.584  1.00  0.00     0.297 HD
ENDBRANCH  15  17
ENDBRANCH   4  15
BRANCH   5  19
ATOM     19  O   UNL     1      -2.159  -3.642  -0.618  1.00  0.00    -0.507 OA
ATOM     20  H   UNL     1      -1.379  -3.869  -1.152  1.00  0.00     0.293 HD
ENDBRANCH   5  19
TORSDOF 4
ENDMDL
MODEL 4
REMARK VINA RESULT:    -6.886      1.149      1.618
REMARK INTER + INTRA:          -8.661
REMARK INTER:                  -7.922
REMARK INTRA:                  -0.739
REMARK UNBOUND:                -0.568
REMARK SMILES O=C(O)c1cc(-c2ccc(F)cc2F)ccc1O
REMARK SMILES IDX 6 1 5 2 15 3 4 4 17 5 16 6 7 7 13 8 12 9 8 10 10 11 9 12
REMARK SMILES IDX 14 13 11 14 2 15 1 16 3 17 18 19
REMARK H PARENT 3 18 18 20
ROOT
ATOM      1  C   UNL     1      -5.208  -6.305  -1.267  1.00  0.00    -0.014 A 
ATOM      2  C   UNL     1      -5.233  -5.236  -2.161  1.00  0.00     0.028 A 
ATOM      3  C   UNL     1      -4.271  -6.327  -0.233  1.00  0.00     0.013 A 
ATOM      4  C   UNL     1      -4.322  -4.188  -2.023  1.00  0.00     0.102 A 
ATOM      5  C   UNL     1      -3.386  -4.210  -0.990  1.00  0.00     0.130 A 
ATOM      6  C   UNL     1      -3.360  -5.281  -0.094  1.00  0.00     0.048 A 
ENDROOT
BRANCH   1   7
ATOM      7  C   UNL     1      -6.152  -7.392  -1.410  1.00  0.00     0.018 A 
ATOM      8  C   UNL     1      -5.700  -8.712  -1.444  1.00  0.00     0.133 A 
ATOM      9  C   UNL     1      -6.613  -9.758  -1.583  1.00  0.00     0.079 A 
ATOM     10  C   UNL     1      -7.515  -7.119  -1.514  1.00  0.00     0.015 A 
ATOM     11  C   UNL     1      -7.976  -9.484  -1.687  1.00  0.00     0.126 A 
ATOM     12  C   UNL     1      -8.427  -8.164  -1.652  1.00  0.00     0.040 A 
ATOM     13  F   UNL     1      -4.392  -8.992  -1.349  1.00  0.00    -0.206 F 
ATOM     14  F   UNL     1      -8.853 -10.487  -1.821  1.00  0.00    -0.207 F 
ENDBRANCH   1   7
BRANCH   4  15
ATOM     15  C   UNL     1      -4.365  -3.080  -2.968  1.00  0.00     0.339 C 
ATOM     16  O   UNL     1      -3.383  -2.471  -3.399  1.00  0.00    -0.246 OA
BRANCH  15  17
ATOM     17  O   UNL     1      -5.636  -2.770  -3.345  1.00  0.00    -0.478 OA
ATOM     18  H   UNL     1      -5.922  -3.292  -4.124  1.00  0.00     0.297 HD
ENDBRANCH  15  17
ENDBRANCH   4  15
BRANCH   5  19
ATOM     19  O   UNL     1      -2.487  -3.197  -0.837  1.00  0.00    -0.507 OA
ATOM     20  H   UNL     1      -2.264  -2.836  -1.712  1.00  0.00     0.293 HD
ENDBRANCH   5  19
TORSDOF 4
ENDMDL
MODEL 5
REMARK VINA RESULT:    -5.322      4.141      6.370
REMARK INTER + INTRA:          -6.824
REMARK INTER:                  -5.744
REMARK INTRA:                  -1.080
REMARK UNBOUND:                -0.568
REMARK SMILES O=C(O)c1cc(-c2ccc(F)cc2F)ccc1O
REMARK SMILES IDX 6 1 5 2 15 3 4 4 17 5 16 6 7 7 13 8 12 9 8 10 10 11 9 12
REMARK SMILES IDX 14 13 11 14 2 15 1 16 3 17 18 19
REMARK H PARENT 3 18 18 20
ROOT
ATOM      1  C   UNL     1      -7.157  -8.230  -1.636  1.00  0.00    -0.014 A 
ATOM      2  C   UNL     1      -7.634  -8.602  -2.892  1.00  0.00     0.028 A 
ATOM      3  C   UNL     1      -7.571  -8.923  -0.499  1.00  0.00     0.013 A 
ATOM      4  C   UNL     1      -8.526  -9.669  -3.012  1.00  0.00     0.102 A 
ATOM      5  C   UNL     1      -8.940 -10.362  -1.875  1.00  0.00     0.130 A 
ATOM      6  C   UNL     1      -8.462  -9.989  -0.618  1.00  0.00     0.048 A 
ENDROOT
BRANCH   1   7
ATOM      7  C   UNL     1      -6.234  -7.123  -1.511  1.00  0.00     0.018 A 
ATOM      8  C   UNL     1      -6.715  -5.817  -1.405  1.00  0.00     0.133 A 
ATOM      9  C   UNL     1      -5.821  -4.753  -1.285  1.00  0.00     0.079 A 
ATOM     10  C   UNL     1      -4.860  -7.363  -1.496  1.00  0.00     0.015 A 
ATOM     11  C   UNL     1      -4.448  -4.993  -1.271  1.00  0.00     0.126 A 
ATOM     12  C   UNL     1      -3.967  -6.299  -1.376  1.00  0.00     0.040 A 
ATOM     13  F   UNL     1      -8.032  -5.569  -1.421  1.00  0.00    -0.206 F 
ATOM     14  F   UNL     1      -3.589  -3.972  -1.155  1.00  0.00    -0.207 F 
ENDBRANCH   1   7
BRANCH   4  15
ATOM     15  C   UNL     1      -9.012 -10.043  -4.333  1.00  0.00     0.339 C 
ATOM     16  O   UNL     1      -9.672 -11.052  -4.591  1.00  0.00    -0.246 OA
BRANCH  15  17
ATOM     17  O   UNL     1      -8.660  -9.141  -5.289  1.00  0.00    -0.478 OA
ATOM     18  H   UNL     1      -7.714  -9.221  -5.535  1.00  0.00     0.297 HD
ENDBRANCH  15  17
ENDBRANCH   4  15
BRANCH   5  19
ATOM     19  O   UNL     1      -9.810 -11.408  -1.970  1.00  0.00    -0.507 OA
ATOM     20  H   UNL     1     -10.292 -11.343  -2.813  1.00  0.00     0.293 HD
ENDBRANCH   5  19
TORSDOF 4
ENDMDL
MODEL 6
REMARK VINA RESULT:    -5.311      4.430      6.740
REMARK INTER + INTRA:          -6.810
REMARK INTER:                  -5.746
REMARK INTRA:                  -1.064
REMARK UNBOUND:                -0.568
REMARK SMILES O=C(O)c1cc(-c2ccc(F)cc2F)ccc1O
REMARK SMILES IDX 6 1 5 2 15 3 4 4 17 5 16 6 7 7 13 8 12 9 8 10 10 11 9 12
REMARK SMILES IDX 14 13 11 14 2 15 1 16 3 17 18 19
REMARK H PARENT 3 18 18 20
ROOT
ATOM      1  C   UNL     1      -7.127  -8.255  -1.624  1.00  0.00    -0.014 A 
ATOM      2  C   UNL     1      -7.537  -8.988  -0.512  1.00  0.00     0.028 A 
ATOM      3  C   UNL     1      -7.627  -8.567  -2.889  1.00  0.00     0.013 A 
ATOM      4  C   UNL     1      -8.447 -10.035  -0.662  1.00  0.00     0.102 A 
ATOM      5  C   UNL     1      -8.947 -10.347  -1.926  1.00  0.00     0.130 A 
ATOM      6  C   UNL     1      -8.537  -9.613  -3.040  1.00  0.00     0.048 A 
ENDROOT
BRANCH   1   7
ATOM      7  C   UNL     1      -6.181  -7.170  -1.469  1.00  0.00     0.018 A 
ATOM      8  C   UNL     1      -6.635  -5.855  -1.366  1.00  0.00     0.133 A 
ATOM      9  C   UNL     1      -5.720  -4.812  -1.216  1.00  0.00     0.079 A 
ATOM     10  C   UNL     1      -4.815  -7.443  -1.422  1.00  0.00     0.015 A 
ATOM     11  C   UNL     1      -4.354  -5.085  -1.170  1.00  0.00     0.126 A 
ATOM     12  C   UNL     1      -3.901  -6.400  -1.272  1.00  0.00     0.040 A 
ATOM     13  F   UNL     1      -7.946  -5.576  -1.412  1.00  0.00    -0.206 F 
ATOM     14  F   UNL     1      -3.475  -4.084  -1.027  1.00  0.00    -0.207 F 
ENDBRANCH   1   7
BRANCH   4  15
ATOM     15  C   UNL     1      -8.863 -10.788   0.512  1.00  0.00     0.339 C 
ATOM     16  O   UNL     1      -9.335 -11.928   0.499  1.00  0.00    -0.246 OA
BRANCH  15  17
ATOM     17  O   UNL     1      -8.675 -10.094   1.667  1.00  0.00    -0.478 OA
ATOM     18  H   UNL     1      -7.766 -10.204   2.016  1.00  0.00     0.297 HD
ENDBRANCH  15  17
ENDBRANCH   4  15
BRANCH   5  19
ATOM     19  O   UNL     1      -9.838 -11.365  -2.095  1.00  0.00    -0.507 OA
ATOM     20  H   UNL     1     -10.741 -11.002  -2.082  1.00  0.00     0.293 HD
ENDBRANCH   5  19
TORSDOF 4
ENDMDL
MODEL 7
REMARK VINA RESULT:    -5.021      2.048      3.237
REMARK INTER + INTRA:          -6.469
REMARK INTER:                  -5.501
REMARK INTRA:                  -0.968
REMARK UNBOUND:                -0.568
REMARK SMILES O=C(O)c1cc(-c2ccc(F)cc2F)ccc1O
REMARK SMILES IDX 6 1 5 2 15 3 4 4 17 5 16 6 7 7 13 8 12 9 8 10 10 11 9 12
REMARK SMILES IDX 14 13 11 14 2 15 1 16 3 17 18 19
REMARK H PARENT 3 18 18 20
ROOT
ATOM      1  C   UNL     1      -6.357  -7.183  -1.364  1.00  0.00    -0.014 A 
ATOM      2  C   UNL     1      -5.073  -7.520  -0.937  1.00  0.00     0.028 A 
ATOM      3  C   UNL     1      -6.763  -5.848  -1.364  1.00  0.00     0.013 A 
ATOM      4  C   UNL     1      -4.195  -6.524  -0.511  1.00  0.00     0.102 A 
ATOM      5  C   UNL     1      -4.601  -5.189  -0.512  1.00  0.00     0.130 A 
ATOM      6  C   UNL     1      -5.886  -4.852  -0.939  1.00  0.00     0.048 A 
ENDROOT
BRANCH   1   7
ATOM      7  C   UNL     1      -7.270  -8.216  -1.804  1.00  0.00     0.018 A 
ATOM      8  C   UNL     1      -7.780  -9.137  -0.889  1.00  0.00     0.133 A 
ATOM      9  C   UNL     1      -8.659 -10.131  -1.318  1.00  0.00     0.079 A 
ATOM     10  C   UNL     1      -7.639  -8.289  -3.147  1.00  0.00     0.015 A 
ATOM     11  C   UNL     1      -9.028 -10.205  -2.660  1.00  0.00     0.126 A 
ATOM     12  C   UNL     1      -8.518  -9.283  -3.575  1.00  0.00     0.040 A 
ATOM     13  F   UNL     1      -7.433  -9.082   0.405  1.00  0.00    -0.206 F 
ATOM     14  F   UNL     1      -9.872 -11.159  -3.073  1.00  0.00    -0.207 F 
ENDBRANCH   1   7
BRANCH   4  15
ATOM     15  C   UNL     1      -2.858  -6.897  -0.070  1.00  0.00     0.339 C 
ATOM     16  O   UNL     1      -2.083  -6.169   0.554  1.00  0.00    -0.246 OA
BRANCH  15  17
ATOM     17  O   UNL     1      -2.533  -8.171  -0.422  1.00  0.00    -0.478 OA
ATOM     18  H   UNL     1      -2.123  -8.210  -1.312  1.00  0.00     0.297 HD
ENDBRANCH  15  17
ENDBRANCH   4  15
BRANCH   5  19
ATOM     19  O   UNL     1      -3.758  -4.201  -0.101  1.00  0.00    -0.507 OA
ATOM     20  H   UNL     1      -4.283  -3.427   0.167  1.00  0.00     0.293 HD
ENDBRANCH   5  19
TORSDOF 4
ENDMDL
MODEL 8
REMARK VINA RESULT:    -4.870      1.655      2.100
REMARK INTER + INTRA:          -6.292
REMARK INTER:                  -5.308
REMARK INTRA:                  -0.984
REMARK UNBOUND:                -0.568
REMARK SMILES O=C(O)c1cc(-c2ccc(F)cc2F)ccc1O
REMARK SMILES IDX 6 1 5 2 15 3 4 4 17 5 16 6 7 7 13 8 12 9 8 10 10 11 9 12
REMARK SMILES IDX 14 13 11 14 2 15 1 16 3 17 18 19
REMARK H PARENT 3 18 18 20
ROOT
ATOM      1  C   UNL     1      -6.018  -7.649  -1.513  1.00  0.00    -0.014 A 
ATOM      2  C   UNL     1      -6.405  -6.331  -1.753  1.00  0.00     0.028 A 
ATOM      3  C   UNL     1      -4.664  -7.971  -1.409  1.00  0.00     0.013 A 
ATOM      4  C   UNL     1      -5.439  -5.334  -1.889  1.00  0.00     0.102 A 
ATOM      5  C   UNL     1      -4.086  -5.655  -1.784  1.00  0.00     0.130 A 
ATOM      6  C   UNL     1      -3.698  -6.974  -1.544  1.00  0.00     0.048 A 
ENDROOT
BRANCH   1   7
ATOM      7  C   UNL     1      -7.019  -8.685  -1.374  1.00  0.00     0.018 A 
ATOM      8  C   UNL     1      -7.746  -9.110  -2.487  1.00  0.00     0.133 A 
ATOM      9  C   UNL     1      -8.710 -10.109  -2.348  1.00  0.00     0.079 A 
ATOM     10  C   UNL     1      -7.256  -9.258  -0.125  1.00  0.00     0.015 A 
ATOM     11  C   UNL     1      -8.948 -10.681  -1.098  1.00  0.00     0.126 A 
ATOM     12  C   UNL     1      -8.219 -10.256   0.013  1.00  0.00     0.040 A 
ATOM     13  F   UNL     1      -7.532  -8.568  -3.694  1.00  0.00    -0.206 F 
ATOM     14  F   UNL     1      -9.873 -11.639  -0.964  1.00  0.00    -0.207 F 
ENDBRANCH   1   7
BRANCH   4  15
ATOM     15  C   UNL     1      -5.864  -3.963  -2.138  1.00  0.00     0.339 C 
ATOM     16  O   UNL     1      -5.186  -3.096  -2.694  1.00  0.00    -0.246 OA
BRANCH  15  17
ATOM     17  O   UNL     1      -7.124  -3.721  -1.687  1.00  0.00    -0.478 OA
ATOM     18  H   UNL     1      -7.519  -2.931  -2.112  1.00  0.00     0.297 HD
ENDBRANCH  15  17
ENDBRANCH   4  15
BRANCH   5  19
ATOM     19  O   UNL     1      -3.126  -4.695  -1.913  1.00  0.00    -0.507 OA
ATOM     20  H   UNL     1      -2.523  -4.945  -2.634  1.00  0.00     0.293 HD
ENDBRANCH   5  19
TORSDOF 4
ENDMDL
MODEL 9
REMARK VINA RESULT:    -4.627      8.576     10.791
REMARK INTER + INTRA:          -6.007
REMARK INTER:                  -4.975
REMARK INTRA:                  -1.032
REMARK UNBOUND:                -0.568
REMARK SMILES O=C(O)c1cc(-c2ccc(F)cc2F)ccc1O
REMARK SMILES IDX 6 1 5 2 15 3 4 4 17 5 16 6 7 7 13 8 12 9 8 10 10 11 9 12
REMARK SMILES IDX 14 13 11 14 2 15 1 16 3 17 18 19
REMARK H PARENT 3 18 18 20
ROOT
ATOM      1  C   UNL     1      -9.140 -12.524  -7.534  1.00  0.00    -0.014 A 
ATOM      2  C   UNL     1      -9.843 -12.240  -8.703  1.00  0.00     0.028 A 
ATOM      3  C   UNL     1      -8.456 -13.734  -7.408  1.00  0.00     0.013 A 
ATOM      4  C   UNL     1      -9.864 -13.164  -9.748  1.00  0.00     0.102 A 
ATOM      5  C   UNL     1      -9.180 -14.373  -9.622  1.00  0.00     0.130 A 
ATOM      6  C   UNL     1      -8.476 -14.658  -8.451  1.00  0.00     0.048 A 
ENDROOT
BRANCH   1   7
ATOM      7  C   UNL     1      -9.119 -11.567  -6.449  1.00  0.00     0.018 A 
ATOM      8  C   UNL     1     -10.234 -11.421  -5.622  1.00  0.00     0.133 A 
ATOM      9  C   UNL     1     -10.210 -10.496  -4.578  1.00  0.00     0.079 A 
ATOM     10  C   UNL     1      -7.982 -10.789  -6.231  1.00  0.00     0.015 A 
ATOM     11  C   UNL     1      -9.073  -9.718  -4.360  1.00  0.00     0.126 A 
ATOM     12  C   UNL     1      -7.959  -9.865  -5.187  1.00  0.00     0.040 A 
ATOM     13  F   UNL     1     -11.335 -12.159  -5.819  1.00  0.00    -0.206 F 
ATOM     14  F   UNL     1      -9.049  -8.831  -3.358  1.00  0.00    -0.207 F 
ENDBRANCH   1   7
BRANCH   4  15
ATOM     15  C   UNL     1     -10.604 -12.847 -10.962  1.00  0.00     0.339 C 
ATOM     16  O   UNL     1     -10.674 -11.733 -11.485  1.00  0.00    -0.246 OA
BRANCH  15  17
ATOM     17  O   UNL     1     -11.232 -13.935 -11.485  1.00  0.00    -0.478 OA
ATOM     18  H   UNL     1     -12.205 -13.815 -11.515  1.00  0.00     0.297 HD
ENDBRANCH  15  17
ENDBRANCH   4  15
BRANCH   5  19
ATOM     19  O   UNL     1      -9.187 -15.290 -10.631  1.00  0.00    -0.507 OA
ATOM     20  H   UNL     1      -8.273 -15.569 -10.813  1.00  0.00     0.293 HD
ENDBRANCH   5  19
TORSDOF 4
ENDMDL
