MODEL 1
REMARK VINA RESULT:    -6.833      0.000      0.000
REMARK INTER + INTRA:          -8.671
REMARK INTER:                  -8.032
REMARK INTRA:                  -0.640
REMARK UNBOUND:                -0.640
REMARK SMILES O=C(O)c1cc(-c2ccc(F)cc2F)ccc1O
REMARK SMILES IDX 6 1 5 2 15 3 4 4 17 5 16 6 7 7 13 8 12 9 8 10 10 11 9 12
REMARK SMILES IDX 14 13 11 14 2 15 1 16 3 17 18 19
REMARK H PARENT 3 18 18 20
ROOT
ATOM      1  C   UNL     1       3.497  -4.884  -6.061  1.00  0.00    -0.014 A 
ATOM      2  C   UNL     1       2.848  -3.708  -6.433  1.00  0.00     0.028 A 
ATOM      3  C   UNL     1       3.773  -5.133  -4.717  1.00  0.00     0.013 A 
ATOM      4  C   UNL     1       2.474  -2.779  -5.462  1.00  0.00     0.102 A 
ATOM      5  C   UNL     1       2.749  -3.028  -4.117  1.00  0.00     0.130 A 
ATOM      6  C   UNL     1       3.399  -4.205  -3.744  1.00  0.00     0.048 A 
ENDROOT
BRANCH   1   7
ATOM      7  C   UNL     1       3.887  -5.847  -7.069  1.00  0.00     0.018 A 
ATOM      8  C   UNL     1       2.990  -6.210  -8.074  1.00  0.00     0.133 A 
ATOM      9  C   UNL     1       3.370  -7.139  -9.044  1.00  0.00     0.079 A 
ATOM     10  C   UNL     1       5.162  -6.411  -7.033  1.00  0.00     0.015 A 
ATOM     11  C   UNL     1       4.645  -7.703  -9.008  1.00  0.00     0.126 A 
ATOM     12  C   UNL     1       5.541  -7.339  -8.003  1.00  0.00     0.040 A 
ATOM     13  F   UNL     1       1.760  -5.679  -8.121  1.00  0.00    -0.206 F 
ATOM     14  F   UNL     1       5.010  -8.595  -9.938  1.00  0.00    -0.207 F 
ENDBRANCH   1   7
BRANCH   4  15
ATOM     15  C   UNL     1       1.796  -1.557  -5.871  1.00  0.00     0.339 C 
ATOM     16  O   UNL     1       2.046  -0.426  -5.447  1.00  0.00    -0.246 OA
BRANCH  15  17
ATOM     17  O   UNL     1       0.829  -1.787  -6.800  1.00  0.00    -0.478 OA
ATOM     18  H   UNL     1       1.198  -2.174  -7.622  1.00  0.00     0.297 HD
ENDBRANCH  15  17
ENDBRANCH   4  15
BRANCH   5  19
ATOM     19  O   UNL     1       2.392  -2.134  -3.152  1.00  0.00    -0.507 OA
ATOM     20  H   UNL     1       3.180  -1.894  -2.634  1.00  0.00     0.293 HD
ENDBRANCH   5  19
TORSDOF 4
ENDMDL
MODEL 2
REMARK VINA RESULT:    -6.805      1.709      3.203
REMARK INTER + INTRA:          -8.638
REMARK INTER:                  -8.070
REMARK INTRA:                  -0.567
REMARK UNBOUND:                -0.640
REMARK SMILES O=C(O)c1cc(-c2ccc(F)cc2F)ccc1O
REMARK SMILES IDX 6 1 5 2 15 3 4 4 17 5 16 6 7 7 13 8 12 9 8 10 10 11 9 12
REMARK SMILES IDX 14 13 11 14 2 15 1 16 3 17 18 19
REMARK H PARENT 3 18 18 20
ROOT
ATOM      1  C   UNL     1       3.660  -4.863  -5.971  1.00  0.00    -0.014 A 
ATOM      2  C   UNL     1       3.975  -5.142  -4.642  1.00  0.00     0.028 A 
ATOM      3  C   UNL     1       2.986  -3.685  -6.295  1.00  0.00     0.013 A 
ATOM      4  C   UNL     1       3.617  -4.243  -3.636  1.00  0.00     0.102 A 
ATOM      5  C   UNL     1       2.944  -3.066  -3.961  1.00  0.00     0.130 A 
ATOM      6  C   UNL     1       2.628  -2.786  -5.291  1.00  0.00     0.048 A 
ENDROOT
BRANCH   1   7
ATOM      7  C   UNL     1       4.029  -5.795  -7.014  1.00  0.00     0.018 A 
ATOM      8  C   UNL     1       5.299  -6.374  -7.019  1.00  0.00     0.133 A 
ATOM      9  C   UNL     1       5.651  -7.272  -8.027  1.00  0.00     0.079 A 
ATOM     10  C   UNL     1       3.113  -6.115  -8.015  1.00  0.00     0.015 A 
ATOM     11  C   UNL     1       4.735  -7.591  -9.028  1.00  0.00     0.126 A 
ATOM     12  C   UNL     1       3.466  -7.013  -9.022  1.00  0.00     0.040 A 
ATOM     13  F   UNL     1       6.192  -6.075  -6.065  1.00  0.00    -0.206 F 
ATOM     14  F   UNL     1       5.073  -8.453  -9.996  1.00  0.00    -0.207 F 
ENDBRANCH   1   7
BRANCH   4  15
ATOM     15  C   UNL     1       3.956  -4.553  -2.254  1.00  0.00     0.339 C 
ATOM     16  O   UNL     1       3.162  -4.564  -1.310  1.00  0.00    -0.246 OA
BRANCH  15  17
ATOM     17  O   UNL     1       5.277  -4.840  -2.096  1.00  0.00    -0.478 OA
ATOM     18  H   UNL     1       5.426  -5.798  -1.949  1.00  0.00     0.297 HD
ENDBRANCH  15  17
ENDBRANCH   4  15
BRANCH   5  19
ATOM     19  O   UNL     1       2.586  -2.174  -2.993  1.00  0.00    -0.507 OA
ATOM     20  H   UNL     1       2.451  -1.301  -3.401  1.00  0.00     0.293 HD
ENDBRANCH   5  19
TORSDOF 4
ENDMDL
MODEL 3
REMARK VINA RESULT:    -5.421      4.379      6.714
REMARK INTER + INTRA:          -7.012
REMARK INTER:                  -5.955
REMARK INTRA:                  -1.057
REMARK UNBOUND:                -0.640
REMARK SMILES O=C(O)c1cc(-c2ccc(F)cc2F)ccc1O
REMARK SMILES IDX 6 1 5 2 15 3 4 4 17 5 16 6 7 7 13 8 12 9 8 10 10 11 9 12
REMARK SMILES IDX 14 13 11 14 2 15 1 16 3 17 18 19
REMARK H PARENT 3 18 18 20
ROOT
ATOM      1  C   UNL     1       4.230  -6.632  -7.962  1.00  0.00    -0.014 A 
ATOM      2  C   UNL     1       4.240  -7.993  -7.661  1.00  0.00     0.028 A 
ATOM      3  C   UNL     1       4.599  -6.196  -9.235  1.00  0.00     0.013 A 
ATOM      4  C   UNL     1       4.619  -8.920  -8.633  1.00  0.00     0.102 A 
ATOM      5  C   UNL     1       4.988  -8.484  -9.906  1.00  0.00     0.130 A 
ATOM      6  C   UNL     1       4.978  -7.122 -10.207  1.00  0.00     0.048 A 
ENDROOT
BRANCH   1   7
ATOM      7  C   UNL     1       3.839  -5.670  -6.955  1.00  0.00     0.018 A 
ATOM      8  C   UNL     1       2.543  -5.152  -6.947  1.00  0.00     0.133 A 
ATOM      9  C   UNL     1       2.170  -4.224  -5.973  1.00  0.00     0.079 A 
ATOM     10  C   UNL     1       4.759  -5.261  -5.990  1.00  0.00     0.015 A 
ATOM     11  C   UNL     1       3.091  -3.815  -5.010  1.00  0.00     0.126 A 
ATOM     12  C   UNL     1       4.385  -4.335  -5.018  1.00  0.00     0.040 A 
ATOM     13  F   UNL     1       1.647  -5.532  -7.868  1.00  0.00    -0.206 F 
ATOM     14  F   UNL     1       2.733  -2.925  -4.075  1.00  0.00    -0.207 F 
ENDBRANCH   1   7
BRANCH   4  15
ATOM     15  C   UNL     1       4.622 -10.337  -8.299  1.00  0.00     0.339 C 
ATOM     16  O   UNL     1       5.220 -11.217  -8.923  1.00  0.00    -0.246 OA
BRANCH  15  17
ATOM     17  O   UNL     1       3.878 -10.611  -7.193  1.00  0.00    -0.478 OA
ATOM     18  H   UNL     1       3.255 -11.352  -7.346  1.00  0.00     0.297 HD
ENDBRANCH  15  17
ENDBRANCH   4  15
BRANCH   5  19
ATOM     19  O   UNL     1       5.361  -9.374 -10.869  1.00  0.00    -0.507 OA
ATOM     20  H   UNL     1       4.563  -9.773 -11.258  1.00  0.00     0.293 HD
ENDBRANCH   5  19
TORSDOF 4
ENDMDL
MODEL 4
REMARK VINA RESULT:    -5.410      3.993      6.279
REMARK INTER + INTRA:          -6.999
REMARK INTER:                  -5.940
REMARK INTRA:                  -1.059
REMARK UNBOUND:                -0.640
REMARK SMILES O=C(O)c1cc(-c2ccc(F)cc2F)ccc1O
REMARK SMILES IDX 6 1 5 2 15 3 4 4 17 5 16 6 7 7 13 8 12 9 8 10 10 11 9 12
REMARK SMILES IDX 14 13 11 14 2 15 1 16 3 17 18 19
REMARK H PARENT 3 18 18 20
ROOT
ATOM      1  C   UNL     1       4.256  -6.611  -7.969  1.00  0.00    -0.014 A 
ATOM      2  C   UNL     1       4.619  -6.142  -9.231  1.00  0.00     0.028 A 
ATOM      3  C   UNL     1       4.266  -7.981  -7.704  1.00  0.00     0.013 A 
ATOM      4  C   UNL     1       4.993  -7.043 -10.229  1.00  0.00     0.102 A 
ATOM      5  C   UNL     1       5.003  -8.412  -9.964  1.00  0.00     0.130 A 
ATOM      6  C   UNL     1       4.639  -8.881  -8.701  1.00  0.00     0.048 A 
ENDROOT
BRANCH   1   7
ATOM      7  C   UNL     1       3.867  -5.678  -6.934  1.00  0.00     0.018 A 
ATOM      8  C   UNL     1       2.570  -5.163  -6.906  1.00  0.00     0.133 A 
ATOM      9  C   UNL     1       2.200  -4.263  -5.906  1.00  0.00     0.079 A 
ATOM     10  C   UNL     1       4.791  -5.295  -5.962  1.00  0.00     0.015 A 
ATOM     11  C   UNL     1       3.124  -3.880  -4.935  1.00  0.00     0.126 A 
ATOM     12  C   UNL     1       4.420  -4.396  -4.963  1.00  0.00     0.040 A 
ATOM     13  F   UNL     1       1.671  -5.519  -7.834  1.00  0.00    -0.206 F 
ATOM     14  F   UNL     1       2.769  -3.016  -3.975  1.00  0.00    -0.207 F 
ENDBRANCH   1   7
BRANCH   4  15
ATOM     15  C   UNL     1       5.369  -6.533 -11.540  1.00  0.00     0.339 C 
ATOM     16  O   UNL     1       5.474  -7.210 -12.566  1.00  0.00    -0.246 OA
BRANCH  15  17
ATOM     17  O   UNL     1       5.602  -5.192 -11.528  1.00  0.00    -0.478 OA
ATOM     18  H   UNL     1       6.337  -4.955 -10.924  1.00  0.00     0.297 HD
ENDBRANCH  15  17
ENDBRANCH   4  15
BRANCH   5  19
ATOM     19  O   UNL     1       5.365  -9.308 -10.926  1.00  0.00    -0.507 OA
ATOM     20  H   UNL     1       5.869 -10.031 -10.512  1.00  0.00     0.293 HD
ENDBRANCH   5  19
TORSDOF 4
ENDMDL
MODEL 5
REMARK VINA RESULT:    -5.362      1.705      2.963
REMARK INTER + INTRA:          -6.942
REMARK INTER:                  -6.285
REMARK INTRA:                  -0.657
REMARK UNBOUND:                -0.640
REMARK SMILES O=C(O)c1cc(-c2ccc(F)cc2F)ccc1O
REMARK SMILES IDX 6 1 5 2 15 3 4 4 17 5 16 6 7 7 13 8 12 9 8 10 10 11 9 12
REMARK SMILES IDX 14 13 11 14 2 15 1 16 3 17 18 19
REMARK H PARENT 3 18 18 20
ROOT
ATOM      1  C   UNL     1       3.591  -5.234  -6.496  1.00  0.00    -0.014 A 
ATOM      2  C   UNL     1       4.061  -5.401  -5.194  1.00  0.00     0.028 A 
ATOM      3  C   UNL     1       2.707  -4.196  -6.790  1.00  0.00     0.013 A 
ATOM      4  C   UNL     1       3.647  -4.530  -4.185  1.00  0.00     0.102 A 
ATOM      5  C   UNL     1       2.762  -3.493  -4.480  1.00  0.00     0.130 A 
ATOM      6  C   UNL     1       2.292  -3.326  -5.783  1.00  0.00     0.048 A 
ENDROOT
BRANCH   1   7
ATOM      7  C   UNL     1       4.020  -6.137  -7.542  1.00  0.00     0.018 A 
ATOM      8  C   UNL     1       4.082  -7.510  -7.300  1.00  0.00     0.133 A 
ATOM      9  C   UNL     1       4.496  -8.377  -8.312  1.00  0.00     0.079 A 
ATOM     10  C   UNL     1       4.369  -5.632  -8.794  1.00  0.00     0.015 A 
ATOM     11  C   UNL     1       4.847  -7.872  -9.563  1.00  0.00     0.126 A 
ATOM     12  C   UNL     1       4.783  -6.500  -9.805  1.00  0.00     0.040 A 
ATOM     13  F   UNL     1       3.752  -8.011  -6.101  1.00  0.00    -0.206 F 
ATOM     14  F   UNL     1       5.244  -8.704 -10.535  1.00  0.00    -0.207 F 
ENDBRANCH   1   7
BRANCH   4  15
ATOM     15  C   UNL     1       4.149  -4.721  -2.831  1.00  0.00     0.339 C 
ATOM     16  O   UNL     1       5.306  -5.031  -2.537  1.00  0.00    -0.246 OA
BRANCH  15  17
ATOM     17  O   UNL     1       3.189  -4.518  -1.889  1.00  0.00    -0.478 OA
ATOM     18  H   UNL     1       2.288  -4.542  -2.274  1.00  0.00     0.297 HD
ENDBRANCH  15  17
ENDBRANCH   4  15
BRANCH   5  19
ATOM     19  O   UNL     1       2.345  -2.631  -3.509  1.00  0.00    -0.507 OA
ATOM     20  H   UNL     1       3.091  -2.440  -2.913  1.00  0.00     0.293 HD
ENDBRANCH   5  19
TORSDOF 4
ENDMDL
MODEL 6
REMARK VINA RESULT:    -4.351      5.854      8.099
REMARK INTER + INTRA:          -5.754
REMARK INTER:                  -4.688
REMARK INTRA:                  -1.066
REMARK UNBOUND:                -0.640
REMARK SMILES O=C(O)c1cc(-c2ccc(F)cc2F)ccc1O
REMARK SMILES IDX 6 1 5 2 15 3 4 4 17 5 16 6 7 7 13 8 12 9 8 10 10 11 9 12
REMARK SMILES IDX 14 13 11 14 2 15 1 16 3 17 18 19
REMARK H PARENT 3 18 18 20
ROOT
ATOM      1  C   UNL     1       5.637  -6.796 -11.281  1.00  0.00    -0.014 A 
ATOM      2  C   UNL     1       5.385  -7.887 -12.111  1.00  0.00     0.028 A 
ATOM      3  C   UNL     1       6.408  -5.730 -11.744  1.00  0.00     0.013 A 
ATOM      4  C   UNL     1       5.904  -7.913 -13.406  1.00  0.00     0.102 A 
ATOM      5  C   UNL     1       6.675  -6.848 -13.870  1.00  0.00     0.130 A 
ATOM      6  C   UNL     1       6.928  -5.755 -13.038  1.00  0.00     0.048 A 
ENDROOT
BRANCH   1   7
ATOM      7  C   UNL     1       5.100  -6.769  -9.937  1.00  0.00     0.018 A 
ATOM      8  C   UNL     1       3.783  -6.365  -9.717  1.00  0.00     0.133 A 
ATOM      9  C   UNL     1       3.269  -6.340  -8.420  1.00  0.00     0.079 A 
ATOM     10  C   UNL     1       5.903  -7.148  -8.861  1.00  0.00     0.015 A 
ATOM     11  C   UNL     1       4.072  -6.718  -7.345  1.00  0.00     0.126 A 
ATOM     12  C   UNL     1       5.389  -7.123  -7.566  1.00  0.00     0.040 A 
ATOM     13  F   UNL     1       2.999  -5.995 -10.740  1.00  0.00    -0.206 F 
ATOM     14  F   UNL     1       3.580  -6.695  -6.100  1.00  0.00    -0.207 F 
ENDBRANCH   1   7
BRANCH   4  15
ATOM     15  C   UNL     1       5.629  -9.062 -14.258  1.00  0.00     0.339 C 
ATOM     16  O   UNL     1       6.175  -9.296 -15.339  1.00  0.00    -0.246 OA
BRANCH  15  17
ATOM     17  O   UNL     1       4.681  -9.883 -13.730  1.00  0.00    -0.478 OA
ATOM     18  H   UNL     1       4.745  -9.934 -12.754  1.00  0.00     0.297 HD
ENDBRANCH  15  17
ENDBRANCH   4  15
BRANCH   5  19
ATOM     19  O   UNL     1       7.191  -6.853 -15.131  1.00  0.00    -0.507 OA
ATOM     20  H   UNL     1       6.465  -6.955 -15.771  1.00  0.00     0.293 HD
ENDBRANCH   5  19
TORSDOF 4
ENDMDL
MODEL 7
REMARK VINA RESULT:    -4.292      6.126      8.533
REMARK INTER + INTRA:          -5.684
REMARK INTER:                  -4.618
REMARK INTRA:                  -1.066
REMARK UNBOUND:                -0.640
REMARK SMILES O=C(O)c1cc(-c2ccc(F)cc2F)ccc1O
REMARK SMILES IDX 6 1 5 2 15 3 4 4 17 5 16 6 7 7 13 8 12 9 8 10 10 11 9 12
REMARK SMILES IDX 14 13 11 14 2 15 1 16 3 17 18 19
REMARK H PARENT 3 18 18 20
ROOT
ATOM      1  C   UNL     1       4.393 -10.161  -8.651  1.00  0.00    -0.014 A 
ATOM      2  C   UNL     1       5.262 -10.676  -9.612  1.00  0.00     0.028 A 
ATOM      3  C   UNL     1       3.551 -11.018  -7.942  1.00  0.00     0.013 A 
ATOM      4  C   UNL     1       5.290 -12.048  -9.865  1.00  0.00     0.102 A 
ATOM      5  C   UNL     1       4.448 -12.904  -9.155  1.00  0.00     0.130 A 
ATOM      6  C   UNL     1       3.578 -12.389  -8.194  1.00  0.00     0.048 A 
ENDROOT
BRANCH   1   7
ATOM      7  C   UNL     1       4.362  -8.738  -8.390  1.00  0.00     0.018 A 
ATOM      8  C   UNL     1       5.303  -8.163  -7.535  1.00  0.00     0.133 A 
ATOM      9  C   UNL     1       5.270  -6.790  -7.286  1.00  0.00     0.079 A 
ATOM     10  C   UNL     1       3.391  -7.942  -8.996  1.00  0.00     0.015 A 
ATOM     11  C   UNL     1       4.298  -5.995  -7.891  1.00  0.00     0.126 A 
ATOM     12  C   UNL     1       3.359  -6.571  -8.746  1.00  0.00     0.040 A 
ATOM     13  F   UNL     1       6.242  -8.914  -6.943  1.00  0.00    -0.206 F 
ATOM     14  F   UNL     1       4.265  -4.677  -7.652  1.00  0.00    -0.207 F 
ENDBRANCH   1   7
BRANCH   4  15
ATOM     15  C   UNL     1       6.206 -12.566 -10.872  1.00  0.00     0.339 C 
ATOM     16  O   UNL     1       6.136 -13.681 -11.394  1.00  0.00    -0.246 OA
BRANCH  15  17
ATOM     17  O   UNL     1       7.179 -11.672 -11.196  1.00  0.00    -0.478 OA
ATOM     18  H   UNL     1       8.076 -12.044 -11.061  1.00  0.00     0.297 HD
ENDBRANCH  15  17
ENDBRANCH   4  15
BRANCH   5  19
ATOM     19  O   UNL     1       4.461 -14.248  -9.386  1.00  0.00    -0.507 OA
ATOM     20  H   UNL     1       3.790 -14.673  -8.824  1.00  0.00     0.293 HD
ENDBRANCH   5  19
TORSDOF 4
ENDMDL
MODEL 8
REMARK VINA RESULT:    -4.079      8.144      9.700
REMARK INTER + INTRA:          -5.434
REMARK INTER:                  -4.458
REMARK INTRA:                  -0.976
REMARK UNBOUND:                -0.640
REMARK SMILES O=C(O)c1cc(-c2ccc(F)cc2F)ccc1O
REMARK SMILES IDX 6 1 5 2 15 3 4 4 17 5 16 6 7 7 13 8 12 9 8 10 10 11 9 12
REMARK SMILES IDX 14 13 11 14 2 15 1 16 3 17 18 19
REMARK H PARENT 3 18 18 20
ROOT
ATOM      1  C   UNL     1       3.061   1.695  -0.872  1.00  0.00    -0.014 A 
ATOM      2  C   UNL     1       4.373   1.434  -0.480  1.00  0.00     0.028 A 
ATOM      3  C   UNL     1       2.789   2.758  -1.733  1.00  0.00     0.013 A 
ATOM      4  C   UNL     1       5.414   2.235  -0.948  1.00  0.00     0.102 A 
ATOM      5  C   UNL     1       5.142   3.298  -1.809  1.00  0.00     0.130 A 
ATOM      6  C   UNL     1       3.829   3.560  -2.202  1.00  0.00     0.048 A 
ENDROOT
BRANCH   1   7
ATOM      7  C   UNL     1       1.980   0.865  -0.385  1.00  0.00     0.018 A 
ATOM      8  C   UNL     1       1.741  -0.383  -0.961  1.00  0.00     0.133 A 
ATOM      9  C   UNL     1       0.697  -1.180  -0.489  1.00  0.00     0.079 A 
ATOM     10  C   UNL     1       1.177   1.315   0.663  1.00  0.00     0.015 A 
ATOM     11  C   UNL     1      -0.105  -0.729   0.558  1.00  0.00     0.126 A 
ATOM     12  C   UNL     1       0.135   0.518   1.135  1.00  0.00     0.040 A 
ATOM     13  F   UNL     1       2.501  -0.829  -1.971  1.00  0.00    -0.206 F 
ATOM     14  F   UNL     1      -1.107  -1.494   1.012  1.00  0.00    -0.207 F 
ENDBRANCH   1   7
BRANCH   4  15
ATOM     15  C   UNL     1       6.778   1.945  -0.527  1.00  0.00     0.339 C 
ATOM     16  O   UNL     1       7.756   1.875  -1.275  1.00  0.00    -0.246 OA
BRANCH  15  17
ATOM     17  O   UNL     1       6.876   1.754   0.817  1.00  0.00    -0.478 OA
ATOM     18  H   UNL     1       7.755   1.406   1.072  1.00  0.00     0.297 HD
ENDBRANCH  15  17
ENDBRANCH   4  15
BRANCH   5  19
ATOM     19  O   UNL     1       6.145   4.093  -2.279  1.00  0.00    -0.507 OA
ATOM     20  H   UNL     1       5.826   5.010  -2.330  1.00  0.00     0.293 HD
ENDBRANCH   5  19
TORSDOF 4
ENDMDL
MODEL 9
REMARK VINA RESULT:    -3.902      1.946      2.896
REMARK INTER + INTRA:          -5.226
REMARK INTER:                  -4.160
REMARK INTRA:                  -1.065
REMARK UNBOUND:                -0.640
REMARK SMILES O=C(O)c1cc(-c2ccc(F)cc2F)ccc1O
REMARK SMILES IDX 6 1 5 2 15 3 4 4 17 5 16 6 7 7 13 8 12 9 8 10 10 11 9 12
REMARK SMILES IDX 14 13 11 14 2 15 1 16 3 17 18 19
REMARK H PARENT 3 18 18 20
ROOT
ATOM      1  C   UNL     1       3.248  -6.050  -7.894  1.00  0.00    -0.014 A 
ATOM      2  C   UNL     1       4.016  -5.105  -7.216  1.00  0.00     0.028 A 
ATOM      3  C   UNL     1       1.865  -5.894  -7.979  1.00  0.00     0.013 A 
ATOM      4  C   UNL     1       3.402  -4.001  -6.623  1.00  0.00     0.102 A 
ATOM      5  C   UNL     1       2.018  -3.844  -6.709  1.00  0.00     0.130 A 
ATOM      6  C   UNL     1       1.250  -4.791  -7.388  1.00  0.00     0.048 A 
ENDROOT
BRANCH   1   7
ATOM      7  C   UNL     1       3.885  -7.196  -8.508  1.00  0.00     0.018 A 
ATOM      8  C   UNL     1       4.471  -7.079  -9.769  1.00  0.00     0.133 A 
ATOM      9  C   UNL     1       5.083  -8.186 -10.357  1.00  0.00     0.079 A 
ATOM     10  C   UNL     1       3.913  -8.417  -7.835  1.00  0.00     0.015 A 
ATOM     11  C   UNL     1       5.111  -9.408  -9.685  1.00  0.00     0.126 A 
ATOM     12  C   UNL     1       4.526  -9.523  -8.424  1.00  0.00     0.040 A 
ATOM     13  F   UNL     1       4.450  -5.913 -10.429  1.00  0.00    -0.206 F 
ATOM     14  F   UNL     1       5.698 -10.471 -10.249  1.00  0.00    -0.207 F 
ENDBRANCH   1   7
BRANCH   4  15
ATOM     15  C   UNL     1       4.222  -3.024  -5.920  1.00  0.00     0.339 C 
ATOM     16  O   UNL     1       3.861  -1.890  -5.597  1.00  0.00    -0.246 OA
BRANCH  15  17
ATOM     17  O   UNL     1       5.467  -3.497  -5.643  1.00  0.00    -0.478 OA
ATOM     18  H   UNL     1       6.106  -3.282  -6.355  1.00  0.00     0.297 HD
ENDBRANCH  15  17
ENDBRANCH   4  15
BRANCH   5  19
ATOM     19  O   UNL     1       1.399  -2.773  -6.138  1.00  0.00    -0.507 OA
ATOM     20  H   UNL     1       0.436  -2.917  -6.155  1.00  0.00     0.293 HD
ENDBRANCH   5  19
TORSDOF 4
ENDMDL
