MODEL 1
REMARK VINA RESULT:    -5.290      0.000      0.000
REMARK INTER + INTRA:          -7.249
REMARK INTER:                  -6.527
REMARK INTRA:                  -0.722
REMARK UNBOUND:                -0.722
REMARK SMILES Cc1ccc(C(=O)c2cc(O)c(O)c([N+](=O)[O-])c2)cc1
REMARK SMILES IDX 8 1 18 2 9 3 14 4 10 5 12 6 6 7 7 8 5 9 4 10 19 11 3 12
REMARK SMILES IDX 20 13 2 14 1 15 15 16 17 17 16 18 11 19 13 21
REMARK H PARENT 11 20 13 22
ROOT
ATOM      1  C   UNL     1       3.833  -4.091  -6.365  1.00  0.00     0.033 A 
ATOM      2  C   UNL     1       4.107  -4.697  -5.161  1.00  0.00     0.102 A 
ATOM      3  C   UNL     1       3.142  -2.906  -6.465  1.00  0.00     0.063 A 
ATOM      4  C   UNL     1       3.665  -4.082  -3.989  1.00  0.00     0.315 A 
ATOM      5  C   UNL     1       2.699  -2.292  -5.293  1.00  0.00     0.165 A 
ATOM      6  C   UNL     1       2.962  -2.880  -4.055  1.00  0.00     0.237 A 
ENDROOT
BRANCH   1   7
ATOM      7  C   UNL     1       4.305  -4.749  -7.620  1.00  0.00     0.193 C 
ATOM      8  O   UNL     1       4.626  -4.011  -8.564  1.00  0.00    -0.289 OA
BRANCH   7   9
ATOM      9  C   UNL     1       4.396  -6.194  -7.756  1.00  0.00     0.023 A 
ATOM     10  C   UNL     1       3.375  -6.900  -8.394  1.00  0.00     0.012 A 
ATOM     11  C   UNL     1       5.503  -6.874  -7.250  1.00  0.00     0.012 A 
ATOM     12  C   UNL     1       3.462  -8.285  -8.525  1.00  0.00     0.004 A 
ATOM     13  C   UNL     1       5.590  -8.261  -7.380  1.00  0.00     0.004 A 
ATOM     14  C   UNL     1       4.570  -8.967  -8.018  1.00  0.00    -0.051 A 
ATOM     15  C   UNL     1       4.662 -10.448  -8.157  1.00  0.00     0.044 C 
ENDBRANCH   7   9
ENDBRANCH   1   7
BRANCH   4  16
ATOM     16  N   UNL     1       3.942  -4.696  -2.737  1.00  0.00     0.066 N 
ATOM     17  O   UNL     1       3.132  -4.536  -1.792  1.00  0.00    -0.258 OA
ATOM     18  O   UNL     1       4.985  -5.379  -2.614  1.00  0.00    -0.258 OA
ENDBRANCH   4  16
BRANCH   5  19
ATOM     19  O   UNL     1       2.013  -1.117  -5.372  1.00  0.00    -0.504 OA
ATOM     20  H   UNL     1       1.808  -0.922  -6.301  1.00  0.00     0.293 HD
ENDBRANCH   5  19
BRANCH   6  21
ATOM     21  O   UNL     1       2.524  -2.268  -2.915  1.00  0.00    -0.500 OA
ATOM     22  H   UNL     1       2.379  -2.933  -2.224  1.00  0.00     0.294 HD
ENDBRANCH   6  21
TORSDOF 5
ENDMDL
MODEL 2
REMARK VINA RESULT:    -5.280      2.001      3.556
REMARK INTER + INTRA:          -7.237
REMARK INTER:                  -6.539
REMARK INTRA:                  -0.698
REMARK UNBOUND:                -0.722
REMARK SMILES Cc1ccc(C(=O)c2cc(O)c(O)c([N+](=O)[O-])c2)cc1
REMARK SMILES IDX 8 1 18 2 9 3 14 4 10 5 12 6 6 7 7 8 5 9 4 10 19 11 3 12
REMARK SMILES IDX 20 13 2 14 1 15 15 16 17 17 16 18 11 19 13 21
REMARK H PARENT 11 20 13 22
ROOT
ATOM      1  C   UNL     1       3.284  -5.457  -5.367  1.00  0.00     0.033 A 
ATOM      2  C   UNL     1       2.805  -4.335  -6.003  1.00  0.00     0.102 A 
ATOM      3  C   UNL     1       3.517  -5.505  -4.014  1.00  0.00     0.063 A 
ATOM      4  C   UNL     1       2.544  -3.196  -5.241  1.00  0.00     0.315 A 
ATOM      5  C   UNL     1       3.256  -4.366  -3.251  1.00  0.00     0.165 A 
ATOM      6  C   UNL     1       2.769  -3.212  -3.865  1.00  0.00     0.237 A 
ENDROOT
BRANCH   1   7
ATOM      7  C   UNL     1       3.563  -6.676  -6.184  1.00  0.00     0.193 C 
ATOM      8  O   UNL     1       3.406  -7.777  -5.635  1.00  0.00    -0.289 OA
BRANCH   7   9
ATOM      9  C   UNL     1       4.003  -6.604  -7.568  1.00  0.00     0.023 A 
ATOM     10  C   UNL     1       5.353  -6.765  -7.881  1.00  0.00     0.012 A 
ATOM     11  C   UNL     1       3.075  -6.373  -8.584  1.00  0.00     0.012 A 
ATOM     12  C   UNL     1       5.774  -6.696  -9.208  1.00  0.00     0.004 A 
ATOM     13  C   UNL     1       3.496  -6.304  -9.912  1.00  0.00     0.004 A 
ATOM     14  C   UNL     1       4.846  -6.465 -10.225  1.00  0.00    -0.051 A 
ATOM     15  C   UNL     1       5.298  -6.390 -11.643  1.00  0.00     0.044 C 
ENDBRANCH   7   9
ENDBRANCH   1   7
BRANCH   4  16
ATOM     16  N   UNL     1       2.049  -2.029  -5.884  1.00  0.00     0.066 N 
ATOM     17  O   UNL     1       1.339  -2.157  -6.911  1.00  0.00    -0.258 OA
ATOM     18  O   UNL     1       2.335  -0.906  -5.406  1.00  0.00    -0.258 OA
ENDBRANCH   4  16
BRANCH   5  19
ATOM     19  O   UNL     1       3.481  -4.396  -1.907  1.00  0.00    -0.504 OA
ATOM     20  H   UNL     1       3.666  -5.308  -1.628  1.00  0.00     0.293 HD
ENDBRANCH   5  19
BRANCH   6  21
ATOM     21  O   UNL     1       2.518  -2.104  -3.108  1.00  0.00    -0.500 OA
ATOM     22  H   UNL     1       2.545  -1.313  -3.668  1.00  0.00     0.294 HD
ENDBRANCH   6  21
TORSDOF 5
ENDMDL
MODEL 3
REMARK VINA RESULT:    -4.857      3.519      7.127
REMARK INTER + INTRA:          -6.715
REMARK INTER:                  -5.809
REMARK INTRA:                  -0.906
REMARK UNBOUND:                -0.722
REMARK SMILES Cc1ccc(C(=O)c2cc(O)c(O)c([N+](=O)[O-])c2)cc1
REMARK SMILES IDX 8 1 18 2 9 3 14 4 10 5 12 6 6 7 7 8 5 9 4 10 19 11 3 12
REMARK SMILES IDX 20 13 2 14 1 15 15 16 17 17 16 18 11 19 13 21
REMARK H PARENT 11 20 13 22
ROOT
ATOM      1  C   UNL     1       5.060  -7.108  -7.608  1.00  0.00     0.033 A 
ATOM      2  C   UNL     1       5.170  -6.727  -8.925  1.00  0.00     0.102 A 
ATOM      3  C   UNL     1       4.920  -8.419  -7.220  1.00  0.00     0.063 A 
ATOM      4  C   UNL     1       5.140  -7.715  -9.910  1.00  0.00     0.315 A 
ATOM      5  C   UNL     1       4.888  -9.407  -8.205  1.00  0.00     0.165 A 
ATOM      6  C   UNL     1       4.999  -9.054  -9.550  1.00  0.00     0.237 A 
ENDROOT
BRANCH   1   7
ATOM      7  C   UNL     1       5.093  -6.051  -6.553  1.00  0.00     0.193 C 
ATOM      8  O   UNL     1       5.985  -6.130  -5.696  1.00  0.00    -0.289 OA
BRANCH   7   9
ATOM      9  C   UNL     1       4.129  -4.963  -6.510  1.00  0.00     0.023 A 
ATOM     10  C   UNL     1       4.547  -3.674  -6.177  1.00  0.00     0.012 A 
ATOM     11  C   UNL     1       2.788  -5.206  -6.803  1.00  0.00     0.012 A 
ATOM     12  C   UNL     1       3.623  -2.630  -6.136  1.00  0.00     0.004 A 
ATOM     13  C   UNL     1       1.862  -4.163  -6.762  1.00  0.00     0.004 A 
ATOM     14  C   UNL     1       2.280  -2.874  -6.429  1.00  0.00    -0.051 A 
ATOM     15  C   UNL     1       1.293  -1.758  -6.383  1.00  0.00     0.044 C 
ENDBRANCH   7   9
ENDBRANCH   1   7
BRANCH   4  16
ATOM     16  N   UNL     1       5.254  -7.336 -11.276  1.00  0.00     0.066 N 
ATOM     17  O   UNL     1       4.817  -6.215 -11.632  1.00  0.00    -0.258 OA
ATOM     18  O   UNL     1       5.787  -8.132 -12.083  1.00  0.00    -0.258 OA
ENDBRANCH   4  16
BRANCH   5  19
ATOM     19  O   UNL     1       4.751 -10.712  -7.839  1.00  0.00    -0.504 OA
ATOM     20  H   UNL     1       5.214 -10.865  -6.998  1.00  0.00     0.293 HD
ENDBRANCH   5  19
BRANCH   6  21
ATOM     21  O   UNL     1       4.968 -10.030 -10.505  1.00  0.00    -0.500 OA
ATOM     22  H   UNL     1       4.836  -9.628 -11.377  1.00  0.00     0.294 HD
ENDBRANCH   6  21
TORSDOF 5
ENDMDL
MODEL 4
REMARK VINA RESULT:    -4.845      3.647      6.453
REMARK INTER + INTRA:          -6.700
REMARK INTER:                  -5.785
REMARK INTRA:                  -0.915
REMARK UNBOUND:                -0.722
REMARK SMILES Cc1ccc(C(=O)c2cc(O)c(O)c([N+](=O)[O-])c2)cc1
REMARK SMILES IDX 8 1 18 2 9 3 14 4 10 5 12 6 6 7 7 8 5 9 4 10 19 11 3 12
REMARK SMILES IDX 20 13 2 14 1 15 15 16 17 17 16 18 11 19 13 21
REMARK H PARENT 11 20 13 22
ROOT
ATOM      1  C   UNL     1       3.671  -6.540  -8.640  1.00  0.00     0.033 A 
ATOM      2  C   UNL     1       3.925  -7.860  -8.346  1.00  0.00     0.102 A 
ATOM      3  C   UNL     1       4.088  -5.942  -9.805  1.00  0.00     0.063 A 
ATOM      4  C   UNL     1       4.636  -8.624  -9.271  1.00  0.00     0.315 A 
ATOM      5  C   UNL     1       4.800  -6.706 -10.730  1.00  0.00     0.165 A 
ATOM      6  C   UNL     1       5.074  -8.048 -10.463  1.00  0.00     0.237 A 
ENDROOT
BRANCH   1   7
ATOM      7  C   UNL     1       2.909  -5.721  -7.649  1.00  0.00     0.193 C 
ATOM      8  O   UNL     1       1.856  -5.193  -8.038  1.00  0.00    -0.289 OA
BRANCH   7   9
ATOM      9  C   UNL     1       3.360  -5.536  -6.280  1.00  0.00     0.023 A 
ATOM     10  C   UNL     1       2.442  -5.580  -5.231  1.00  0.00     0.012 A 
ATOM     11  C   UNL     1       4.711  -5.314  -6.015  1.00  0.00     0.012 A 
ATOM     12  C   UNL     1       2.875  -5.402  -3.917  1.00  0.00     0.004 A 
ATOM     13  C   UNL     1       5.145  -5.136  -4.700  1.00  0.00     0.004 A 
ATOM     14  C   UNL     1       4.227  -5.180  -3.651  1.00  0.00    -0.051 A 
ATOM     15  C   UNL     1       4.689  -4.989  -2.247  1.00  0.00     0.044 C 
ENDBRANCH   7   9
ENDBRANCH   1   7
BRANCH   4  16
ATOM     16  N   UNL     1       4.906  -9.990  -8.981  1.00  0.00     0.066 N 
ATOM     17  O   UNL     1       5.047 -10.339  -7.784  1.00  0.00    -0.258 OA
ATOM     18  O   UNL     1       4.995 -10.804  -9.929  1.00  0.00    -0.258 OA
ENDBRANCH   4  16
BRANCH   5  19
ATOM     19  O   UNL     1       5.221  -6.129 -11.891  1.00  0.00    -0.504 OA
ATOM     20  H   UNL     1       4.806  -5.256 -11.989  1.00  0.00     0.293 HD
ENDBRANCH   5  19
BRANCH   6  21
ATOM     21  O   UNL     1       5.771  -8.785 -11.375  1.00  0.00    -0.500 OA
ATOM     22  H   UNL     1       5.324  -8.746 -12.236  1.00  0.00     0.294 HD
ENDBRANCH   6  21
TORSDOF 5
ENDMDL
MODEL 5
REMARK VINA RESULT:    -4.783      3.739      6.942
REMARK INTER + INTRA:          -6.624
REMARK INTER:                  -5.690
REMARK INTRA:                  -0.934
REMARK UNBOUND:                -0.722
REMARK SMILES Cc1ccc(C(=O)c2cc(O)c(O)c([N+](=O)[O-])c2)cc1
REMARK SMILES IDX 8 1 18 2 9 3 14 4 10 5 12 6 6 7 7 8 5 9 4 10 19 11 3 12
REMARK SMILES IDX 20 13 2 14 1 15 15 16 17 17 16 18 11 19 13 21
REMARK H PARENT 11 20 13 22
ROOT
ATOM      1  C   UNL     1       4.946  -7.025  -8.084  1.00  0.00     0.033 A 
ATOM      2  C   UNL     1       4.797  -8.390  -8.010  1.00  0.00     0.102 A 
ATOM      3  C   UNL     1       5.196  -6.364  -9.263  1.00  0.00     0.063 A 
ATOM      4  C   UNL     1       4.904  -9.137  -9.183  1.00  0.00     0.315 A 
ATOM      5  C   UNL     1       5.304  -7.111 -10.437  1.00  0.00     0.165 A 
ATOM      6  C   UNL     1       5.157  -8.499 -10.396  1.00  0.00     0.237 A 
ENDROOT
BRANCH   1   7
ATOM      7  C   UNL     1       4.831  -6.224  -6.828  1.00  0.00     0.193 C 
ATOM      8  O   UNL     1       5.534  -6.572  -5.866  1.00  0.00    -0.289 OA
BRANCH   7   9
ATOM      9  C   UNL     1       3.941  -5.081  -6.710  1.00  0.00     0.023 A 
ATOM     10  C   UNL     1       4.452  -3.833  -6.351  1.00  0.00     0.012 A 
ATOM     11  C   UNL     1       2.577  -5.230  -6.957  1.00  0.00     0.012 A 
ATOM     12  C   UNL     1       3.598  -2.736  -6.239  1.00  0.00     0.004 A 
ATOM     13  C   UNL     1       1.722  -4.133  -6.845  1.00  0.00     0.004 A 
ATOM     14  C   UNL     1       2.233  -2.886  -6.485  1.00  0.00    -0.051 A 
ATOM     15  C   UNL     1       1.320  -1.713  -6.364  1.00  0.00     0.044 C 
ENDBRANCH   7   9
ENDBRANCH   1   7
BRANCH   4  16
ATOM     16  N   UNL     1       4.752 -10.550  -9.122  1.00  0.00     0.066 N 
ATOM     17  O   UNL     1       5.258 -11.253 -10.030  1.00  0.00    -0.258 OA
ATOM     18  O   UNL     1       4.119 -11.051  -8.164  1.00  0.00    -0.258 OA
ENDBRANCH   4  16
BRANCH   5  19
ATOM     19  O   UNL     1       5.551  -6.473 -11.615  1.00  0.00    -0.504 OA
ATOM     20  H   UNL     1       4.846  -6.681 -12.251  1.00  0.00     0.293 HD
ENDBRANCH   5  19
BRANCH   6  21
ATOM     21  O   UNL     1       5.264  -9.218 -11.551  1.00  0.00    -0.500 OA
ATOM     22  H   UNL     1       5.847  -9.980 -11.408  1.00  0.00     0.294 HD
ENDBRANCH   6  21
TORSDOF 5
ENDMDL
MODEL 6
REMARK VINA RESULT:    -4.750      2.351      4.091
REMARK INTER + INTRA:          -6.583
REMARK INTER:                  -5.610
REMARK INTRA:                  -0.973
REMARK UNBOUND:                -0.722
REMARK SMILES Cc1ccc(C(=O)c2cc(O)c(O)c([N+](=O)[O-])c2)cc1
REMARK SMILES IDX 8 1 18 2 9 3 14 4 10 5 12 6 6 7 7 8 5 9 4 10 19 11 3 12
REMARK SMILES IDX 20 13 2 14 1 15 15 16 17 17 16 18 11 19 13 21
REMARK H PARENT 11 20 13 22
ROOT
ATOM      1  C   UNL     1       5.194  -7.051  -7.650  1.00  0.00     0.033 A 
ATOM      2  C   UNL     1       4.191  -6.245  -7.163  1.00  0.00     0.102 A 
ATOM      3  C   UNL     1       6.438  -7.128  -7.070  1.00  0.00     0.063 A 
ATOM      4  C   UNL     1       4.447  -5.472  -6.031  1.00  0.00     0.315 A 
ATOM      5  C   UNL     1       6.694  -6.354  -5.938  1.00  0.00     0.165 A 
ATOM      6  C   UNL     1       5.699  -5.526  -5.417  1.00  0.00     0.237 A 
ENDROOT
BRANCH   1   7
ATOM      7  C   UNL     1       4.919  -7.879  -8.863  1.00  0.00     0.193 C 
ATOM      8  O   UNL     1       4.949  -7.305  -9.962  1.00  0.00    -0.289 OA
BRANCH   7   9
ATOM      9  C   UNL     1       4.627  -9.301  -8.786  1.00  0.00     0.023 A 
ATOM     10  C   UNL     1       5.337 -10.203  -9.581  1.00  0.00     0.012 A 
ATOM     11  C   UNL     1       3.639  -9.765  -7.919  1.00  0.00     0.012 A 
ATOM     12  C   UNL     1       5.057 -11.567  -9.507  1.00  0.00     0.004 A 
ATOM     13  C   UNL     1       3.358 -11.130  -7.844  1.00  0.00     0.004 A 
ATOM     14  C   UNL     1       4.067 -12.031  -8.639  1.00  0.00    -0.051 A 
ATOM     15  C   UNL     1       3.768 -13.489  -8.561  1.00  0.00     0.044 C 
ENDBRANCH   7   9
ENDBRANCH   1   7
BRANCH   4  16
ATOM     16  N   UNL     1       3.420  -4.634  -5.516  1.00  0.00     0.066 N 
ATOM     17  O   UNL     1       3.740  -3.558  -4.956  1.00  0.00    -0.258 OA
ATOM     18  O   UNL     1       2.226  -4.995  -5.636  1.00  0.00    -0.258 OA
ENDBRANCH   4  16
BRANCH   5  19
ATOM     19  O   UNL     1       7.922  -6.417  -5.349  1.00  0.00    -0.504 OA
ATOM     20  H   UNL     1       8.278  -5.520  -5.241  1.00  0.00     0.293 HD
ENDBRANCH   5  19
BRANCH   6  21
ATOM     21  O   UNL     1       5.961  -4.775  -4.309  1.00  0.00    -0.500 OA
ATOM     22  H   UNL     1       5.916  -5.334  -3.518  1.00  0.00     0.294 HD
ENDBRANCH   6  21
TORSDOF 5
ENDMDL
MODEL 7
REMARK VINA RESULT:    -4.716      1.650      2.948
REMARK INTER + INTRA:          -6.540
REMARK INTER:                  -5.900
REMARK INTRA:                  -0.640
REMARK UNBOUND:                -0.722
REMARK SMILES Cc1ccc(C(=O)c2cc(O)c(O)c([N+](=O)[O-])c2)cc1
REMARK SMILES IDX 8 1 18 2 9 3 14 4 10 5 12 6 6 7 7 8 5 9 4 10 19 11 3 12
REMARK SMILES IDX 20 13 2 14 1 15 15 16 17 17 16 18 11 19 13 21
REMARK H PARENT 11 20 13 22
ROOT
ATOM      1  C   UNL     1       4.633  -4.428  -5.000  1.00  0.00     0.033 A 
ATOM      2  C   UNL     1       3.966  -3.430  -5.671  1.00  0.00     0.102 A 
ATOM      3  C   UNL     1       4.375  -4.747  -3.688  1.00  0.00     0.063 A 
ATOM      4  C   UNL     1       2.983  -2.711  -4.991  1.00  0.00     0.315 A 
ATOM      5  C   UNL     1       3.392  -4.028  -3.007  1.00  0.00     0.165 A 
ATOM      6  C   UNL     1       2.696  -3.009  -3.659  1.00  0.00     0.237 A 
ENDROOT
BRANCH   1   7
ATOM      7  C   UNL     1       5.686  -5.198  -5.728  1.00  0.00     0.193 C 
ATOM      8  O   UNL     1       6.867  -4.877  -5.528  1.00  0.00    -0.289 OA
BRANCH   7   9
ATOM      9  C   UNL     1       5.367  -6.285  -6.640  1.00  0.00     0.023 A 
ATOM     10  C   UNL     1       4.199  -6.236  -7.401  1.00  0.00     0.012 A 
ATOM     11  C   UNL     1       6.228  -7.376  -6.753  1.00  0.00     0.012 A 
ATOM     12  C   UNL     1       3.894  -7.279  -8.276  1.00  0.00     0.004 A 
ATOM     13  C   UNL     1       5.923  -8.419  -7.628  1.00  0.00     0.004 A 
ATOM     14  C   UNL     1       4.755  -8.371  -8.390  1.00  0.00    -0.051 A 
ATOM     15  C   UNL     1       4.427  -9.485  -9.324  1.00  0.00     0.044 C 
ENDBRANCH   7   9
ENDBRANCH   1   7
BRANCH   4  16
ATOM     16  N   UNL     1       2.284  -1.676  -5.671  1.00  0.00     0.066 N 
ATOM     17  O   UNL     1       2.274  -0.524  -5.175  1.00  0.00    -0.258 OA
ATOM     18  O   UNL     1       1.700  -1.946  -6.747  1.00  0.00    -0.258 OA
ENDBRANCH   4  16
BRANCH   5  19
ATOM     19  O   UNL     1       3.122  -4.331  -1.707  1.00  0.00    -0.504 OA
ATOM     20  H   UNL     1       3.522  -3.662  -1.127  1.00  0.00     0.293 HD
ENDBRANCH   5  19
BRANCH   6  21
ATOM     21  O   UNL     1       1.736  -2.313  -2.983  1.00  0.00    -0.500 OA
ATOM     22  H   UNL     1       2.138  -1.548  -2.543  1.00  0.00     0.294 HD
ENDBRANCH   6  21
TORSDOF 5
ENDMDL
MODEL 8
REMARK VINA RESULT:    -4.691      3.777      7.029
REMARK INTER + INTRA:          -6.510
REMARK INTER:                  -5.540
REMARK INTRA:                  -0.970
REMARK UNBOUND:                -0.722
REMARK SMILES Cc1ccc(C(=O)c2cc(O)c(O)c([N+](=O)[O-])c2)cc1
REMARK SMILES IDX 8 1 18 2 9 3 14 4 10 5 12 6 6 7 7 8 5 9 4 10 19 11 3 12
REMARK SMILES IDX 20 13 2 14 1 15 15 16 17 17 16 18 11 19 13 21
REMARK H PARENT 11 20 13 22
ROOT
ATOM      1  C   UNL     1       3.790  -6.710  -8.609  1.00  0.00     0.033 A 
ATOM      2  C   UNL     1       4.317  -6.215  -9.780  1.00  0.00     0.102 A 
ATOM      3  C   UNL     1       3.889  -8.032  -8.246  1.00  0.00     0.063 A 
ATOM      4  C   UNL     1       4.981  -7.094 -10.636  1.00  0.00     0.315 A 
ATOM      5  C   UNL     1       4.552  -8.911  -9.103  1.00  0.00     0.165 A 
ATOM      6  C   UNL     1       5.099  -8.441 -10.298  1.00  0.00     0.237 A 
ENDROOT
BRANCH   1   7
ATOM      7  C   UNL     1       3.078  -5.769  -7.692  1.00  0.00     0.193 C 
ATOM      8  O   UNL     1       2.112  -5.145  -8.156  1.00  0.00    -0.289 OA
BRANCH   7   9
ATOM      9  C   UNL     1       3.481  -5.574  -6.309  1.00  0.00     0.023 A 
ATOM     10  C   UNL     1       4.821  -5.339  -5.999  1.00  0.00     0.012 A 
ATOM     11  C   UNL     1       2.528  -5.623  -5.291  1.00  0.00     0.012 A 
ATOM     12  C   UNL     1       5.207  -5.152  -4.671  1.00  0.00     0.004 A 
ATOM     13  C   UNL     1       2.914  -5.436  -3.963  1.00  0.00     0.004 A 
ATOM     14  C   UNL     1       4.253  -5.200  -3.653  1.00  0.00    -0.051 A 
ATOM     15  C   UNL     1       4.667  -5.002  -2.235  1.00  0.00     0.044 C 
ENDBRANCH   7   9
ENDBRANCH   1   7
BRANCH   4  16
ATOM     16  N   UNL     1       5.532  -6.597 -11.849  1.00  0.00     0.066 N 
ATOM     17  O   UNL     1       5.454  -7.303 -12.883  1.00  0.00    -0.258 OA
ATOM     18  O   UNL     1       6.077  -5.469 -11.850  1.00  0.00    -0.258 OA
ENDBRANCH   4  16
BRANCH   5  19
ATOM     19  O   UNL     1       4.660 -10.225  -8.759  1.00  0.00    -0.504 OA
ATOM     20  H   UNL     1       4.139 -10.396  -7.958  1.00  0.00     0.293 HD
ENDBRANCH   5  19
BRANCH   6  21
ATOM     21  O   UNL     1       5.747  -9.311 -11.127  1.00  0.00    -0.500 OA
ATOM     22  H   UNL     1       5.185  -9.511 -11.891  1.00  0.00     0.294 HD
ENDBRANCH   6  21
TORSDOF 5
ENDMDL
MODEL 9
REMARK VINA RESULT:    -4.668      3.605      4.494
REMARK INTER + INTRA:          -6.481
REMARK INTER:                  -5.561
REMARK INTRA:                  -0.921
REMARK UNBOUND:                -0.722
REMARK SMILES Cc1ccc(C(=O)c2cc(O)c(O)c([N+](=O)[O-])c2)cc1
REMARK SMILES IDX 8 1 18 2 9 3 14 4 10 5 12 6 6 7 7 8 5 9 4 10 19 11 3 12
REMARK SMILES IDX 20 13 2 14 1 15 15 16 17 17 16 18 11 19 13 21
REMARK H PARENT 11 20 13 22
ROOT
ATOM      1  C   UNL     1       3.583  -6.670  -8.752  1.00  0.00     0.033 A 
ATOM      2  C   UNL     1       4.078  -6.034  -7.637  1.00  0.00     0.102 A 
ATOM      3  C   UNL     1       2.294  -6.499  -9.198  1.00  0.00     0.063 A 
ATOM      4  C   UNL     1       3.235  -5.178  -6.928  1.00  0.00     0.315 A 
ATOM      5  C   UNL     1       1.451  -5.643  -8.489  1.00  0.00     0.165 A 
ATOM      6  C   UNL     1       1.922  -4.982  -7.354  1.00  0.00     0.237 A 
ENDROOT
BRANCH   1   7
ATOM      7  C   UNL     1       4.486  -7.587  -9.511  1.00  0.00     0.193 C 
ATOM      8  O   UNL     1       4.592  -8.751  -9.097  1.00  0.00    -0.289 OA
BRANCH   7   9
ATOM      9  C   UNL     1       5.221  -7.158 -10.690  1.00  0.00     0.023 A 
ATOM     10  C   UNL     1       5.198  -7.937 -11.847  1.00  0.00     0.012 A 
ATOM     11  C   UNL     1       5.948  -5.968 -10.664  1.00  0.00     0.012 A 
ATOM     12  C   UNL     1       5.903  -7.525 -12.978  1.00  0.00     0.004 A 
ATOM     13  C   UNL     1       6.653  -5.556 -11.795  1.00  0.00     0.004 A 
ATOM     14  C   UNL     1       6.630  -6.334 -12.953  1.00  0.00    -0.051 A 
ATOM     15  C   UNL     1       7.385  -5.895 -14.161  1.00  0.00     0.044 C 
ENDBRANCH   7   9
ENDBRANCH   1   7
BRANCH   4  16
ATOM     16  N   UNL     1       3.733  -4.513  -5.774  1.00  0.00     0.066 N 
ATOM     17  O   UNL     1       3.340  -3.347  -5.529  1.00  0.00    -0.258 OA
ATOM     18  O   UNL     1       4.548  -5.112  -5.034  1.00  0.00    -0.258 OA
ENDBRANCH   4  16
BRANCH   5  19
ATOM     19  O   UNL     1       0.170  -5.461  -8.916  1.00  0.00    -0.504 OA
ATOM     20  H   UNL     1       0.072  -5.823  -9.813  1.00  0.00     0.293 HD
ENDBRANCH   5  19
BRANCH   6  21
ATOM     21  O   UNL     1       1.087  -4.147  -6.669  1.00  0.00    -0.500 OA
ATOM     22  H   UNL     1       0.208  -4.549  -6.600  1.00  0.00     0.294 HD
ENDBRANCH   6  21
TORSDOF 5
ENDMDL
