MODEL 1
REMARK VINA RESULT:    -6.984      0.000      0.000
REMARK INTER + INTRA:          -8.776
REMARK INTER:                  -8.209
REMARK INTRA:                  -0.567
REMARK UNBOUND:                -0.567
REMARK SMILES O=C(O)c1cc(-c2ccc(F)cc2F)ccc1O
REMARK SMILES IDX 6 1 5 2 15 3 4 4 17 5 16 6 7 7 13 8 12 9 8 10 10 11 9 12
REMARK SMILES IDX 14 13 11 14 2 15 1 16 3 17 18 19
REMARK H PARENT 3 18 18 20
ROOT
ATOM      1  C   UNL     1       1.772   6.248  -6.279  1.00  0.00    -0.014 A 
ATOM      2  C   UNL     1       1.326   4.961  -6.576  1.00  0.00     0.028 A 
ATOM      3  C   UNL     1       2.229   6.550  -4.996  1.00  0.00     0.013 A 
ATOM      4  C   UNL     1       1.337   3.974  -5.589  1.00  0.00     0.102 A 
ATOM      5  C   UNL     1       1.794   4.276  -4.307  1.00  0.00     0.130 A 
ATOM      6  C   UNL     1       2.240   5.564  -4.010  1.00  0.00     0.048 A 
ENDROOT
BRANCH   1   7
ATOM      7  C   UNL     1       1.759   7.273  -7.301  1.00  0.00     0.018 A 
ATOM      8  C   UNL     1       2.203   6.980  -8.592  1.00  0.00     0.133 A 
ATOM      9  C   UNL     1       2.189   7.971  -9.574  1.00  0.00     0.079 A 
ATOM     10  C   UNL     1       1.302   8.554  -6.994  1.00  0.00     0.015 A 
ATOM     11  C   UNL     1       1.733   9.252  -9.267  1.00  0.00     0.126 A 
ATOM     12  C   UNL     1       1.289   9.543  -7.977  1.00  0.00     0.040 A 
ATOM     13  F   UNL     1       2.648   5.755  -8.902  1.00  0.00    -0.206 F 
ATOM     14  F   UNL     1       1.720  10.204 -10.209  1.00  0.00    -0.207 F 
ENDBRANCH   1   7
BRANCH   4  15
ATOM     15  C   UNL     1       0.868   2.635  -5.919  1.00  0.00     0.339 C 
ATOM     16  O   UNL     1       0.016   2.003  -5.291  1.00  0.00    -0.246 OA
BRANCH  15  17
ATOM     17  O   UNL     1       1.478   2.131  -7.026  1.00  0.00    -0.478 OA
ATOM     18  H   UNL     1       2.185   2.724  -7.355  1.00  0.00     0.297 HD
ENDBRANCH  15  17
ENDBRANCH   4  15
BRANCH   5  19
ATOM     19  O   UNL     1       1.814   3.326  -3.329  1.00  0.00    -0.507 OA
ATOM     20  H   UNL     1       2.712   3.270  -2.959  1.00  0.00     0.293 HD
ENDBRANCH   5  19
TORSDOF 4
ENDMDL
MODEL 2
REMARK VINA RESULT:    -6.972      1.640      3.133
REMARK INTER + INTRA:          -8.762
REMARK INTER:                  -8.195
REMARK INTRA:                  -0.567
REMARK UNBOUND:                -0.567
REMARK SMILES O=C(O)c1cc(-c2ccc(F)cc2F)ccc1O
REMARK SMILES IDX 6 1 5 2 15 3 4 4 17 5 16 6 7 7 13 8 12 9 8 10 10 11 9 12
REMARK SMILES IDX 14 13 11 14 2 15 1 16 3 17 18 19
REMARK H PARENT 3 18 18 20
ROOT
ATOM      1  C   UNL     1       1.685   6.247  -6.278  1.00  0.00    -0.014 A 
ATOM      2  C   UNL     1       2.146   6.573  -5.003  1.00  0.00     0.028 A 
ATOM      3  C   UNL     1       1.246   4.951  -6.550  1.00  0.00     0.013 A 
ATOM      4  C   UNL     1       2.169   5.603  -4.000  1.00  0.00     0.102 A 
ATOM      5  C   UNL     1       1.731   4.308  -4.273  1.00  0.00     0.130 A 
ATOM      6  C   UNL     1       1.269   3.981  -5.548  1.00  0.00     0.048 A 
ENDROOT
BRANCH   1   7
ATOM      7  C   UNL     1       1.662   7.251  -7.319  1.00  0.00     0.018 A 
ATOM      8  C   UNL     1       1.200   8.538  -7.040  1.00  0.00     0.133 A 
ATOM      9  C   UNL     1       1.179   9.504  -8.047  1.00  0.00     0.079 A 
ATOM     10  C   UNL     1       2.103   6.931  -8.602  1.00  0.00     0.015 A 
ATOM     11  C   UNL     1       1.620   9.183  -9.331  1.00  0.00     0.126 A 
ATOM     12  C   UNL     1       2.082   7.896  -9.608  1.00  0.00     0.040 A 
ATOM     13  F   UNL     1       0.770   8.862  -5.813  1.00  0.00    -0.206 F 
ATOM     14  F   UNL     1       1.600  10.109 -10.298  1.00  0.00    -0.207 F 
ENDBRANCH   1   7
BRANCH   4  15
ATOM     15  C   UNL     1       2.654   5.964  -2.675  1.00  0.00     0.339 C 
ATOM     16  O   UNL     1       3.530   5.364  -2.047  1.00  0.00    -0.246 OA
BRANCH  15  17
ATOM     17  O   UNL     1       2.030   7.066  -2.177  1.00  0.00    -0.478 OA
ATOM     18  H   UNL     1       2.567   7.877  -2.300  1.00  0.00     0.297 HD
ENDBRANCH  15  17
ENDBRANCH   4  15
BRANCH   5  19
ATOM     19  O   UNL     1       1.745   3.346  -3.306  1.00  0.00    -0.507 OA
ATOM     20  H   UNL     1       1.324   3.698  -2.503  1.00  0.00     0.293 HD
ENDBRANCH   5  19
TORSDOF 4
ENDMDL
MODEL 3
REMARK VINA RESULT:    -5.230      4.529      6.872
REMARK INTER + INTRA:          -6.714
REMARK INTER:                  -5.637
REMARK INTRA:                  -1.078
REMARK UNBOUND:                -0.567
REMARK SMILES O=C(O)c1cc(-c2ccc(F)cc2F)ccc1O
REMARK SMILES IDX 6 1 5 2 15 3 4 4 17 5 16 6 7 7 13 8 12 9 8 10 10 11 9 12
REMARK SMILES IDX 14 13 11 14 2 15 1 16 3 17 18 19
REMARK H PARENT 3 18 18 20
ROOT
ATOM      1  C   UNL     1       1.692   8.131  -7.954  1.00  0.00    -0.014 A 
ATOM      2  C   UNL     1       2.680   9.106  -8.085  1.00  0.00     0.028 A 
ATOM      3  C   UNL     1       0.656   8.058  -8.885  1.00  0.00     0.013 A 
ATOM      4  C   UNL     1       2.631  10.010  -9.147  1.00  0.00     0.102 A 
ATOM      5  C   UNL     1       1.594   9.937 -10.078  1.00  0.00     0.130 A 
ATOM      6  C   UNL     1       0.606   8.960  -9.946  1.00  0.00     0.048 A 
ENDROOT
BRANCH   1   7
ATOM      7  C   UNL     1       1.742   7.194  -6.852  1.00  0.00     0.018 A 
ATOM      8  C   UNL     1       1.196   7.538  -5.615  1.00  0.00     0.133 A 
ATOM      9  C   UNL     1       1.246   6.632  -4.556  1.00  0.00     0.079 A 
ATOM     10  C   UNL     1       2.335   5.944  -7.030  1.00  0.00     0.015 A 
ATOM     11  C   UNL     1       1.840   5.383  -4.733  1.00  0.00     0.126 A 
ATOM     12  C   UNL     1       2.384   5.039  -5.971  1.00  0.00     0.040 A 
ATOM     13  F   UNL     1       0.625   8.736  -5.427  1.00  0.00    -0.206 F 
ATOM     14  F   UNL     1       1.888   4.513  -3.716  1.00  0.00    -0.207 F 
ENDBRANCH   1   7
BRANCH   4  15
ATOM     15  C   UNL     1       3.672  11.022  -9.267  1.00  0.00     0.339 C 
ATOM     16  O   UNL     1       3.762  11.848 -10.178  1.00  0.00    -0.246 OA
BRANCH  15  17
ATOM     17  O   UNL     1       4.566  10.969  -8.242  1.00  0.00    -0.478 OA
ATOM     18  H   UNL     1       4.120  10.965  -7.369  1.00  0.00     0.297 HD
ENDBRANCH  15  17
ENDBRANCH   4  15
BRANCH   5  19
ATOM     19  O   UNL     1       1.528  10.810 -11.122  1.00  0.00    -0.507 OA
ATOM     20  H   UNL     1       2.432  11.055 -11.389  1.00  0.00     0.293 HD
ENDBRANCH   5  19
TORSDOF 4
ENDMDL
MODEL 4
REMARK VINA RESULT:    -5.217      4.031      6.268
REMARK INTER + INTRA:          -6.699
REMARK INTER:                  -5.627
REMARK INTRA:                  -1.072
REMARK UNBOUND:                -0.567
REMARK SMILES O=C(O)c1cc(-c2ccc(F)cc2F)ccc1O
REMARK SMILES IDX 6 1 5 2 15 3 4 4 17 5 16 6 7 7 13 8 12 9 8 10 10 11 9 12
REMARK SMILES IDX 14 13 11 14 2 15 1 16 3 17 18 19
REMARK H PARENT 3 18 18 20
ROOT
ATOM      1  C   UNL     1       1.723   7.961  -8.168  1.00  0.00    -0.014 A 
ATOM      2  C   UNL     1       0.712   8.038  -9.125  1.00  0.00     0.028 A 
ATOM      3  C   UNL     1       2.742   8.914  -8.152  1.00  0.00     0.013 A 
ATOM      4  C   UNL     1       0.719   9.068 -10.066  1.00  0.00     0.102 A 
ATOM      5  C   UNL     1       1.738  10.021 -10.049  1.00  0.00     0.130 A 
ATOM      6  C   UNL     1       2.750   9.944  -9.092  1.00  0.00     0.048 A 
ENDROOT
BRANCH   1   7
ATOM      7  C   UNL     1       1.718   6.892  -7.193  1.00  0.00     0.018 A 
ATOM      8  C   UNL     1       2.251   5.644  -7.518  1.00  0.00     0.133 A 
ATOM      9  C   UNL     1       2.244   4.617  -6.574  1.00  0.00     0.079 A 
ATOM     10  C   UNL     1       1.179   7.112  -5.925  1.00  0.00     0.015 A 
ATOM     11  C   UNL     1       1.704   4.836  -5.307  1.00  0.00     0.126 A 
ATOM     12  C   UNL     1       1.172   6.084  -4.983  1.00  0.00     0.040 A 
ATOM     13  F   UNL     1       2.771   5.416  -8.732  1.00  0.00    -0.206 F 
ATOM     14  F   UNL     1       1.696   3.850  -4.401  1.00  0.00    -0.207 F 
ENDBRANCH   1   7
BRANCH   4  15
ATOM     15  C   UNL     1      -0.347   9.132 -11.057  1.00  0.00     0.339 C 
ATOM     16  O   UNL     1      -0.494  10.029 -11.890  1.00  0.00    -0.246 OA
BRANCH  15  17
ATOM     17  O   UNL     1      -1.195   8.070 -10.975  1.00  0.00    -0.478 OA
ATOM     18  H   UNL     1      -0.770   7.297 -10.547  1.00  0.00     0.297 HD
ENDBRANCH  15  17
ENDBRANCH   4  15
BRANCH   5  19
ATOM     19  O   UNL     1       1.762  11.036 -10.959  1.00  0.00    -0.507 OA
ATOM     20  H   UNL     1       1.521  11.867 -10.515  1.00  0.00     0.293 HD
ENDBRANCH   5  19
TORSDOF 4
ENDMDL
MODEL 5
REMARK VINA RESULT:    -4.697      1.247      1.538
REMARK INTER + INTRA:          -6.088
REMARK INTER:                  -5.521
REMARK INTRA:                  -0.566
REMARK UNBOUND:                -0.567
REMARK SMILES O=C(O)c1cc(-c2ccc(F)cc2F)ccc1O
REMARK SMILES IDX 6 1 5 2 15 3 4 4 17 5 16 6 7 7 13 8 12 9 8 10 10 11 9 12
REMARK SMILES IDX 14 13 11 14 2 15 1 16 3 17 18 19
REMARK H PARENT 3 18 18 20
ROOT
ATOM      1  C   UNL     1       1.490   7.078  -6.647  1.00  0.00    -0.014 A 
ATOM      2  C   UNL     1       1.355   5.717  -6.917  1.00  0.00     0.028 A 
ATOM      3  C   UNL     1       1.576   7.522  -5.327  1.00  0.00     0.013 A 
ATOM      4  C   UNL     1       1.305   4.798  -5.868  1.00  0.00     0.102 A 
ATOM      5  C   UNL     1       1.391   5.242  -4.549  1.00  0.00     0.130 A 
ATOM      6  C   UNL     1       1.527   6.604  -4.278  1.00  0.00     0.048 A 
ENDROOT
BRANCH   1   7
ATOM      7  C   UNL     1       1.540   8.031  -7.735  1.00  0.00     0.018 A 
ATOM      8  C   UNL     1       0.666   7.908  -8.815  1.00  0.00     0.133 A 
ATOM      9  C   UNL     1       0.718   8.829  -9.862  1.00  0.00     0.079 A 
ATOM     10  C   UNL     1       2.464   9.075  -7.700  1.00  0.00     0.015 A 
ATOM     11  C   UNL     1       1.642   9.872  -9.828  1.00  0.00     0.126 A 
ATOM     12  C   UNL     1       2.515   9.995  -8.746  1.00  0.00     0.040 A 
ATOM     13  F   UNL     1      -0.226   6.908  -8.865  1.00  0.00    -0.206 F 
ATOM     14  F   UNL     1       1.693  10.757 -10.832  1.00  0.00    -0.207 F 
ENDBRANCH   1   7
BRANCH   4  15
ATOM     15  C   UNL     1       1.164   3.381  -6.172  1.00  0.00     0.339 C 
ATOM     16  O   UNL     1       1.607   2.818  -7.176  1.00  0.00    -0.246 OA
BRANCH  15  17
ATOM     17  O   UNL     1       0.475   2.711  -5.208  1.00  0.00    -0.478 OA
ATOM     18  H   UNL     1       1.073   2.204  -4.619  1.00  0.00     0.297 HD
ENDBRANCH  15  17
ENDBRANCH   4  15
BRANCH   5  19
ATOM     19  O   UNL     1       1.346   4.361  -3.509  1.00  0.00    -0.507 OA
ATOM     20  H   UNL     1       2.204   4.365  -3.052  1.00  0.00     0.293 HD
ENDBRANCH   5  19
TORSDOF 4
ENDMDL
MODEL 6
REMARK VINA RESULT:    -4.567      0.941      2.246
REMARK INTER + INTRA:          -5.935
REMARK INTER:                  -5.113
REMARK INTRA:                  -0.822
REMARK UNBOUND:                -0.567
REMARK SMILES O=C(O)c1cc(-c2ccc(F)cc2F)ccc1O
REMARK SMILES IDX 6 1 5 2 15 3 4 4 17 5 16 6 7 7 13 8 12 9 8 10 10 11 9 12
REMARK SMILES IDX 14 13 11 14 2 15 1 16 3 17 18 19
REMARK H PARENT 3 18 18 20
ROOT
ATOM      1  C   UNL     1       1.353   5.970  -6.934  1.00  0.00    -0.014 A 
ATOM      2  C   UNL     1       1.795   5.752  -5.630  1.00  0.00     0.028 A 
ATOM      3  C   UNL     1       0.609   4.990  -7.591  1.00  0.00     0.013 A 
ATOM      4  C   UNL     1       1.493   4.554  -4.982  1.00  0.00     0.102 A 
ATOM      5  C   UNL     1       0.749   3.574  -5.639  1.00  0.00     0.130 A 
ATOM      6  C   UNL     1       0.306   3.792  -6.944  1.00  0.00     0.048 A 
ENDROOT
BRANCH   1   7
ATOM      7  C   UNL     1       1.667   7.211  -7.608  1.00  0.00     0.018 A 
ATOM      8  C   UNL     1       2.326   7.194  -8.838  1.00  0.00     0.133 A 
ATOM      9  C   UNL     1       2.627   8.393  -9.484  1.00  0.00     0.079 A 
ATOM     10  C   UNL     1       1.309   8.427  -7.026  1.00  0.00     0.015 A 
ATOM     11  C   UNL     1       2.269   9.608  -8.901  1.00  0.00     0.126 A 
ATOM     12  C   UNL     1       1.610   9.625  -7.672  1.00  0.00     0.040 A 
ATOM     13  F   UNL     1       2.679   6.034  -9.410  1.00  0.00    -0.206 F 
ATOM     14  F   UNL     1       2.558  10.760  -9.521  1.00  0.00    -0.207 F 
ENDBRANCH   1   7
BRANCH   4  15
ATOM     15  C   UNL     1       1.963   4.346  -3.619  1.00  0.00     0.339 C 
ATOM     16  O   UNL     1       2.014   3.258  -3.040  1.00  0.00    -0.246 OA
BRANCH  15  17
ATOM     17  O   UNL     1       2.357   5.505  -3.024  1.00  0.00    -0.478 OA
ATOM     18  H   UNL     1       2.753   6.129  -3.668  1.00  0.00     0.297 HD
ENDBRANCH  15  17
ENDBRANCH   4  15
BRANCH   5  19
ATOM     19  O   UNL     1       0.442   2.397  -5.023  1.00  0.00    -0.507 OA
ATOM     20  H   UNL     1       1.261   1.991  -4.690  1.00  0.00     0.293 HD
ENDBRANCH   5  19
TORSDOF 4
ENDMDL
