MODEL 1
REMARK VINA RESULT:    -5.021      0.000      0.000
REMARK INTER + INTRA:          -6.935
REMARK INTER:                  -6.195
REMARK INTRA:                  -0.740
REMARK UNBOUND:                -0.740
REMARK SMILES Cc1ccc(C(=O)c2cc(O)c(O)c([N+](=O)[O-])c2)cc1
REMARK SMILES IDX 8 1 18 2 9 3 14 4 10 5 12 6 6 7 7 8 5 9 4 10 19 11 3 12
REMARK SMILES IDX 20 13 2 14 1 15 15 16 17 17 16 18 11 19 13 21
REMARK H PARENT 11 20 13 22
ROOT
ATOM      1  C   UNL     1       0.915   5.889  -6.396  1.00  0.00     0.033 A 
ATOM      2  C   UNL     1       1.589   6.424  -5.323  1.00  0.00     0.102 A 
ATOM      3  C   UNL     1       0.552   4.565  -6.465  1.00  0.00     0.063 A 
ATOM      4  C   UNL     1       1.918   5.586  -4.257  1.00  0.00     0.315 A 
ATOM      5  C   UNL     1       0.882   3.726  -5.400  1.00  0.00     0.165 A 
ATOM      6  C   UNL     1       1.565   4.237  -4.295  1.00  0.00     0.237 A 
ENDROOT
BRANCH   1   7
ATOM      7  C   UNL     1       0.562   6.786  -7.537  1.00  0.00     0.193 C 
ATOM      8  O   UNL     1      -0.492   6.546  -8.145  1.00  0.00    -0.289 OA
BRANCH   7   9
ATOM      9  C   UNL     1       1.402   7.903  -7.940  1.00  0.00     0.023 A 
ATOM     10  C   UNL     1       2.303   7.754  -8.994  1.00  0.00     0.012 A 
ATOM     11  C   UNL     1       1.307   9.123  -7.272  1.00  0.00     0.012 A 
ATOM     12  C   UNL     1       3.108   8.825  -9.380  1.00  0.00     0.004 A 
ATOM     13  C   UNL     1       2.112  10.196  -7.657  1.00  0.00     0.004 A 
ATOM     14  C   UNL     1       3.013  10.046  -8.712  1.00  0.00    -0.051 A 
ATOM     15  C   UNL     1       3.875  11.191  -9.124  1.00  0.00     0.044 C 
ENDBRANCH   7   9
ENDBRANCH   1   7
BRANCH   4  16
ATOM     16  N   UNL     1       2.614   6.125  -3.140  1.00  0.00     0.066 N 
ATOM     17  O   UNL     1       2.427   7.326  -2.832  1.00  0.00    -0.258 OA
ATOM     18  O   UNL     1       3.394   5.383  -2.497  1.00  0.00    -0.258 OA
ENDBRANCH   4  16
BRANCH   5  19
ATOM     19  O   UNL     1       0.531   2.411  -5.450  1.00  0.00    -0.504 OA
ATOM     20  H   UNL     1       0.708   1.993  -4.591  1.00  0.00     0.293 HD
ENDBRANCH   5  19
BRANCH   6  21
ATOM     21  O   UNL     1       1.882   3.408  -3.259  1.00  0.00    -0.500 OA
ATOM     22  H   UNL     1       2.674   2.895  -3.482  1.00  0.00     0.294 HD
ENDBRANCH   6  21
TORSDOF 5
ENDMDL
MODEL 2
REMARK VINA RESULT:    -5.002      2.028      3.559
REMARK INTER + INTRA:          -6.912
REMARK INTER:                  -6.162
REMARK INTRA:                  -0.750
REMARK UNBOUND:                -0.740
REMARK SMILES Cc1ccc(C(=O)c2cc(O)c(O)c([N+](=O)[O-])c2)cc1
REMARK SMILES IDX 8 1 18 2 9 3 14 4 10 5 12 6 6 7 7 8 5 9 4 10 19 11 3 12
REMARK SMILES IDX 20 13 2 14 1 15 15 16 17 17 16 18 11 19 13 21
REMARK H PARENT 11 20 13 22
ROOT
ATOM      1  C   UNL     1       2.585   6.416  -5.946  1.00  0.00     0.033 A 
ATOM      2  C   UNL     1       1.983   5.288  -6.453  1.00  0.00     0.102 A 
ATOM      3  C   UNL     1       2.915   6.554  -4.619  1.00  0.00     0.063 A 
ATOM      4  C   UNL     1       1.695   4.237  -5.582  1.00  0.00     0.315 A 
ATOM      5  C   UNL     1       2.626   5.503  -3.747  1.00  0.00     0.165 A 
ATOM      6  C   UNL     1       2.017   4.344  -4.230  1.00  0.00     0.237 A 
ENDROOT
BRANCH   1   7
ATOM      7  C   UNL     1       2.893   7.542  -6.879  1.00  0.00     0.193 C 
ATOM      8  O   UNL     1       3.944   8.171  -6.683  1.00  0.00    -0.289 OA
BRANCH   7   9
ATOM      9  C   UNL     1       2.014   7.906  -7.978  1.00  0.00     0.023 A 
ATOM     10  C   UNL     1       1.090   8.939  -7.820  1.00  0.00     0.012 A 
ATOM     11  C   UNL     1       2.096   7.224  -9.192  1.00  0.00     0.012 A 
ATOM     12  C   UNL     1       0.247   9.288  -8.875  1.00  0.00     0.004 A 
ATOM     13  C   UNL     1       1.253   7.573 -10.248  1.00  0.00     0.004 A 
ATOM     14  C   UNL     1       0.328   8.606 -10.089  1.00  0.00    -0.051 A 
ATOM     15  C   UNL     1      -0.573   8.979 -11.216  1.00  0.00     0.044 C 
ENDBRANCH   7   9
ENDBRANCH   1   7
BRANCH   4  16
ATOM     16  N   UNL     1       1.073   3.064  -6.092  1.00  0.00     0.066 N 
ATOM     17  O   UNL     1       1.418   2.637  -7.220  1.00  0.00    -0.258 OA
ATOM     18  O   UNL     1       0.200   2.492  -5.399  1.00  0.00    -0.258 OA
ENDBRANCH   4  16
BRANCH   5  19
ATOM     19  O   UNL     1       2.947   5.621  -2.428  1.00  0.00    -0.504 OA
ATOM     20  H   UNL     1       3.830   6.015  -2.342  1.00  0.00     0.293 HD
ENDBRANCH   5  19
BRANCH   6  21
ATOM     21  O   UNL     1       1.740   3.322  -3.368  1.00  0.00    -0.500 OA
ATOM     22  H   UNL     1       1.079   2.733  -3.762  1.00  0.00     0.294 HD
ENDBRANCH   6  21
TORSDOF 5
ENDMDL
MODEL 3
REMARK VINA RESULT:    -4.045      1.881      2.513
REMARK INTER + INTRA:          -5.732
REMARK INTER:                  -5.031
REMARK INTRA:                  -0.701
REMARK UNBOUND:                -0.740
REMARK SMILES Cc1ccc(C(=O)c2cc(O)c(O)c([N+](=O)[O-])c2)cc1
REMARK SMILES IDX 8 1 18 2 9 3 14 4 10 5 12 6 6 7 7 8 5 9 4 10 19 11 3 12
REMARK SMILES IDX 20 13 2 14 1 15 15 16 17 17 16 18 11 19 13 21
REMARK H PARENT 11 20 13 22
ROOT
ATOM      1  C   UNL     1       2.439   6.617  -6.270  1.00  0.00     0.033 A 
ATOM      2  C   UNL     1       2.692   6.828  -4.935  1.00  0.00     0.102 A 
ATOM      3  C   UNL     1       1.946   5.430  -6.758  1.00  0.00     0.063 A 
ATOM      4  C   UNL     1       2.436   5.793  -4.036  1.00  0.00     0.315 A 
ATOM      5  C   UNL     1       1.691   4.394  -5.859  1.00  0.00     0.165 A 
ATOM      6  C   UNL     1       1.936   4.576  -4.497  1.00  0.00     0.237 A 
ENDROOT
BRANCH   1   7
ATOM      7  C   UNL     1       2.713   7.726  -7.233  1.00  0.00     0.193 C 
ATOM      8  O   UNL     1       3.768   8.361  -7.085  1.00  0.00    -0.289 OA
BRANCH   7   9
ATOM      9  C   UNL     1       1.797   8.067  -8.310  1.00  0.00     0.023 A 
ATOM     10  C   UNL     1       0.844   9.069  -8.125  1.00  0.00     0.012 A 
ATOM     11  C   UNL     1       1.872   7.393  -9.529  1.00  0.00     0.012 A 
ATOM     12  C   UNL     1      -0.034   9.396  -9.158  1.00  0.00     0.004 A 
ATOM     13  C   UNL     1       0.994   7.720 -10.563  1.00  0.00     0.004 A 
ATOM     14  C   UNL     1       0.041   8.722 -10.378  1.00  0.00    -0.051 A 
ATOM     15  C   UNL     1      -0.899   9.072 -11.481  1.00  0.00     0.044 C 
ENDBRANCH   7   9
ENDBRANCH   1   7
BRANCH   4  16
ATOM     16  N   UNL     1       2.692   5.996  -2.652  1.00  0.00     0.066 N 
ATOM     17  O   UNL     1       2.081   6.912  -2.051  1.00  0.00    -0.258 OA
ATOM     18  O   UNL     1       3.520   5.255  -2.073  1.00  0.00    -0.258 OA
ENDBRANCH   4  16
BRANCH   5  19
ATOM     19  O   UNL     1       1.202   3.210  -6.324  1.00  0.00    -0.504 OA
ATOM     20  H   UNL     1       1.929   2.676  -6.683  1.00  0.00     0.293 HD
ENDBRANCH   5  19
BRANCH   6  21
ATOM     21  O   UNL     1       1.681   3.555  -3.628  1.00  0.00    -0.500 OA
ATOM     22  H   UNL     1       1.737   2.707  -4.095  1.00  0.00     0.294 HD
ENDBRANCH   6  21
TORSDOF 5
ENDMDL
MODEL 4
REMARK VINA RESULT:    -4.038      3.669      6.798
REMARK INTER + INTRA:          -5.723
REMARK INTER:                  -4.755
REMARK INTRA:                  -0.969
REMARK UNBOUND:                -0.740
REMARK SMILES Cc1ccc(C(=O)c2cc(O)c(O)c([N+](=O)[O-])c2)cc1
REMARK SMILES IDX 8 1 18 2 9 3 14 4 10 5 12 6 6 7 7 8 5 9 4 10 19 11 3 12
REMARK SMILES IDX 20 13 2 14 1 15 15 16 17 17 16 18 11 19 13 21
REMARK H PARENT 11 20 13 22
ROOT
ATOM      1  C   UNL     1       1.473   8.850  -8.082  1.00  0.00     0.033 A 
ATOM      2  C   UNL     1       2.516   9.720  -8.303  1.00  0.00     0.102 A 
ATOM      3  C   UNL     1       0.456   8.659  -8.986  1.00  0.00     0.063 A 
ATOM      4  C   UNL     1       2.543  10.438  -9.499  1.00  0.00     0.315 A 
ATOM      5  C   UNL     1       0.482   9.378 -10.181  1.00  0.00     0.165 A 
ATOM      6  C   UNL     1       1.527  10.268 -10.438  1.00  0.00     0.237 A 
ENDROOT
BRANCH   1   7
ATOM      7  C   UNL     1       1.444   8.081  -6.801  1.00  0.00     0.193 C 
ATOM      8  O   UNL     1       1.518   8.729  -5.746  1.00  0.00    -0.289 OA
BRANCH   7   9
ATOM      9  C   UNL     1       1.334   6.631  -6.765  1.00  0.00     0.023 A 
ATOM     10  C   UNL     1       2.225   5.846  -7.496  1.00  0.00     0.012 A 
ATOM     11  C   UNL     1       0.338   6.026  -5.999  1.00  0.00     0.012 A 
ATOM     12  C   UNL     1       2.119   4.455  -7.461  1.00  0.00     0.004 A 
ATOM     13  C   UNL     1       0.231   4.635  -5.963  1.00  0.00     0.004 A 
ATOM     14  C   UNL     1       1.123   3.850  -6.695  1.00  0.00    -0.051 A 
ATOM     15  C   UNL     1       1.009   2.364  -6.659  1.00  0.00     0.044 C 
ENDBRANCH   7   9
ENDBRANCH   1   7
BRANCH   4  16
ATOM     16  N   UNL     1       3.615  11.340  -9.742  1.00  0.00     0.066 N 
ATOM     17  O   UNL     1       4.730  11.113  -9.213  1.00  0.00    -0.258 OA
ATOM     18  O   UNL     1       3.415  12.334 -10.478  1.00  0.00    -0.258 OA
ENDBRANCH   4  16
BRANCH   5  19
ATOM     19  O   UNL     1      -0.518   9.202 -11.090  1.00  0.00    -0.504 OA
ATOM     20  H   UNL     1      -1.306   8.852 -10.643  1.00  0.00     0.293 HD
ENDBRANCH   5  19
BRANCH   6  21
ATOM     21  O   UNL     1       1.542  10.965 -11.611  1.00  0.00    -0.500 OA
ATOM     22  H   UNL     1       1.149  10.426 -12.315  1.00  0.00     0.294 HD
ENDBRANCH   6  21
TORSDOF 5
ENDMDL
MODEL 5
REMARK VINA RESULT:    -4.037      1.265      2.691
REMARK INTER + INTRA:          -5.722
REMARK INTER:                  -5.053
REMARK INTRA:                  -0.669
REMARK UNBOUND:                -0.740
REMARK SMILES Cc1ccc(C(=O)c2cc(O)c(O)c([N+](=O)[O-])c2)cc1
REMARK SMILES IDX 8 1 18 2 9 3 14 4 10 5 12 6 6 7 7 8 5 9 4 10 19 11 3 12
REMARK SMILES IDX 20 13 2 14 1 15 15 16 17 17 16 18 11 19 13 21
REMARK H PARENT 11 20 13 22
ROOT
ATOM      1  C   UNL     1       1.064   6.380  -6.670  1.00  0.00     0.033 A 
ATOM      2  C   UNL     1       0.862   5.029  -6.829  1.00  0.00     0.102 A 
ATOM      3  C   UNL     1       1.502   6.936  -5.491  1.00  0.00     0.063 A 
ATOM      4  C   UNL     1       1.112   4.185  -5.748  1.00  0.00     0.315 A 
ATOM      5  C   UNL     1       1.752   6.091  -4.408  1.00  0.00     0.165 A 
ATOM      6  C   UNL     1       1.557   4.715  -4.537  1.00  0.00     0.237 A 
ENDROOT
BRANCH   1   7
ATOM      7  C   UNL     1       0.796   7.285  -7.828  1.00  0.00     0.193 C 
ATOM      8  O   UNL     1      -0.242   7.086  -8.477  1.00  0.00    -0.289 OA
BRANCH   7   9
ATOM      9  C   UNL     1       1.698   8.363  -8.201  1.00  0.00     0.023 A 
ATOM     10  C   UNL     1       2.635   8.168  -9.216  1.00  0.00     0.012 A 
ATOM     11  C   UNL     1       1.626   9.591  -7.545  1.00  0.00     0.012 A 
ATOM     12  C   UNL     1       3.500   9.202  -9.574  1.00  0.00     0.004 A 
ATOM     13  C   UNL     1       2.491  10.626  -7.902  1.00  0.00     0.004 A 
ATOM     14  C   UNL     1       3.428  10.432  -8.918  1.00  0.00    -0.051 A 
ATOM     15  C   UNL     1       4.354  11.536  -9.300  1.00  0.00     0.044 C 
ENDBRANCH   7   9
ENDBRANCH   1   7
BRANCH   4  16
ATOM     16  N   UNL     1       0.908   2.786  -5.898  1.00  0.00     0.066 N 
ATOM     17  O   UNL     1       0.090   2.208  -5.142  1.00  0.00    -0.258 OA
ATOM     18  O   UNL     1       1.551   2.171  -6.780  1.00  0.00    -0.258 OA
ENDBRANCH   4  16
BRANCH   5  19
ATOM     19  O   UNL     1       2.186   6.624  -3.232  1.00  0.00    -0.504 OA
ATOM     20  H   UNL     1       1.852   7.532  -3.142  1.00  0.00     0.293 HD
ENDBRANCH   5  19
BRANCH   6  21
ATOM     21  O   UNL     1       1.806   3.900  -3.471  1.00  0.00    -0.500 OA
ATOM     22  H   UNL     1       0.968   3.636  -3.061  1.00  0.00     0.294 HD
ENDBRANCH   6  21
TORSDOF 5
ENDMDL
MODEL 6
REMARK VINA RESULT:    -4.019      3.733      6.966
REMARK INTER + INTRA:          -5.699
REMARK INTER:                  -4.724
REMARK INTRA:                  -0.976
REMARK UNBOUND:                -0.740
REMARK SMILES Cc1ccc(C(=O)c2cc(O)c(O)c([N+](=O)[O-])c2)cc1
REMARK SMILES IDX 8 1 18 2 9 3 14 4 10 5 12 6 6 7 7 8 5 9 4 10 19 11 3 12
REMARK SMILES IDX 20 13 2 14 1 15 15 16 17 17 16 18 11 19 13 21
REMARK H PARENT 11 20 13 22
ROOT
ATOM      1  C   UNL     1       1.898   8.020  -8.921  1.00  0.00     0.033 A 
ATOM      2  C   UNL     1       0.834   8.212  -9.771  1.00  0.00     0.102 A 
ATOM      3  C   UNL     1       2.906   8.942  -8.768  1.00  0.00     0.063 A 
ATOM      4  C   UNL     1       0.774   9.394 -10.509  1.00  0.00     0.315 A 
ATOM      5  C   UNL     1       2.847  10.124  -9.506  1.00  0.00     0.165 A 
ATOM      6  C   UNL     1       1.780  10.351 -10.376  1.00  0.00     0.237 A 
ENDROOT
BRANCH   1   7
ATOM      7  C   UNL     1       1.963   6.753  -8.131  1.00  0.00     0.193 C 
ATOM      8  O   UNL     1       1.895   5.686  -8.761  1.00  0.00    -0.289 OA
BRANCH   7   9
ATOM      9  C   UNL     1       2.099   6.743  -6.684  1.00  0.00     0.023 A 
ATOM     10  C   UNL     1       3.128   6.016  -6.085  1.00  0.00     0.012 A 
ATOM     11  C   UNL     1       1.202   7.461  -5.894  1.00  0.00     0.012 A 
ATOM     12  C   UNL     1       3.259   6.006  -4.697  1.00  0.00     0.004 A 
ATOM     13  C   UNL     1       1.333   7.452  -4.504  1.00  0.00     0.004 A 
ATOM     14  C   UNL     1       2.362   6.725  -3.906  1.00  0.00    -0.051 A 
ATOM     15  C   UNL     1       2.501   6.713  -2.422  1.00  0.00     0.044 C 
ENDBRANCH   7   9
ENDBRANCH   1   7
BRANCH   4  16
ATOM     16  N   UNL     1      -0.320   9.607 -11.391  1.00  0.00     0.066 N 
ATOM     17  O   UNL     1      -0.150  10.324 -12.406  1.00  0.00    -0.258 OA
ATOM     18  O   UNL     1      -1.423   9.072 -11.129  1.00  0.00    -0.258 OA
ENDBRANCH   4  16
BRANCH   5  19
ATOM     19  O   UNL     1       3.837  11.050  -9.366  1.00  0.00    -0.504 OA
ATOM     20  H   UNL     1       3.766  11.712 -10.073  1.00  0.00     0.293 HD
ENDBRANCH   5  19
BRANCH   6  21
ATOM     21  O   UNL     1       1.733  11.511 -11.092  1.00  0.00    -0.500 OA
ATOM     22  H   UNL     1       1.513  12.250 -10.503  1.00  0.00     0.294 HD
ENDBRANCH   6  21
TORSDOF 5
ENDMDL
MODEL 7
REMARK VINA RESULT:    -4.004      3.567      6.501
REMARK INTER + INTRA:          -5.681
REMARK INTER:                  -4.768
REMARK INTRA:                  -0.913
REMARK UNBOUND:                -0.740
REMARK SMILES Cc1ccc(C(=O)c2cc(O)c(O)c([N+](=O)[O-])c2)cc1
REMARK SMILES IDX 8 1 18 2 9 3 14 4 10 5 12 6 6 7 7 8 5 9 4 10 19 11 3 12
REMARK SMILES IDX 20 13 2 14 1 15 15 16 17 17 16 18 11 19 13 21
REMARK H PARENT 11 20 13 22
ROOT
ATOM      1  C   UNL     1       1.857   7.823  -8.960  1.00  0.00     0.033 A 
ATOM      2  C   UNL     1       2.736   8.865  -8.772  1.00  0.00     0.102 A 
ATOM      3  C   UNL     1       0.830   7.869  -9.872  1.00  0.00     0.063 A 
ATOM      4  C   UNL     1       2.578  10.017  -9.541  1.00  0.00     0.315 A 
ATOM      5  C   UNL     1       0.672   9.022 -10.641  1.00  0.00     0.165 A 
ATOM      6  C   UNL     1       1.546  10.096 -10.476  1.00  0.00     0.237 A 
ENDROOT
BRANCH   1   7
ATOM      7  C   UNL     1       2.026   6.588  -8.136  1.00  0.00     0.193 C 
ATOM      8  O   UNL     1       2.065   5.504  -8.737  1.00  0.00    -0.289 OA
BRANCH   7   9
ATOM      9  C   UNL     1       2.143   6.628  -6.687  1.00  0.00     0.023 A 
ATOM     10  C   UNL     1       1.251   7.394  -5.936  1.00  0.00     0.012 A 
ATOM     11  C   UNL     1       3.146   5.900  -6.048  1.00  0.00     0.012 A 
ATOM     12  C   UNL     1       1.363   7.431  -4.546  1.00  0.00     0.004 A 
ATOM     13  C   UNL     1       3.259   5.937  -4.657  1.00  0.00     0.004 A 
ATOM     14  C   UNL     1       2.367   6.703  -3.906  1.00  0.00    -0.051 A 
ATOM     15  C   UNL     1       2.487   6.744  -2.421  1.00  0.00     0.044 C 
ENDBRANCH   7   9
ENDBRANCH   1   7
BRANCH   4  16
ATOM     16  N   UNL     1       3.479  11.102  -9.358  1.00  0.00     0.066 N 
ATOM     17  O   UNL     1       3.744  11.841 -10.337  1.00  0.00    -0.258 OA
ATOM     18  O   UNL     1       3.980  11.289  -8.225  1.00  0.00    -0.258 OA
ENDBRANCH   4  16
BRANCH   5  19
ATOM     19  O   UNL     1      -0.341   9.084 -11.551  1.00  0.00    -0.504 OA
ATOM     20  H   UNL     1      -1.161   9.357 -11.107  1.00  0.00     0.293 HD
ENDBRANCH   5  19
BRANCH   6  21
ATOM     21  O   UNL     1       1.381  11.219 -11.235  1.00  0.00    -0.500 OA
ATOM     22  H   UNL     1       0.440  11.445 -11.282  1.00  0.00     0.294 HD
ENDBRANCH   6  21
TORSDOF 5
ENDMDL
MODEL 8
REMARK VINA RESULT:    -4.002      3.471      7.164
REMARK INTER + INTRA:          -5.679
REMARK INTER:                  -4.730
REMARK INTRA:                  -0.949
REMARK UNBOUND:                -0.740
REMARK SMILES Cc1ccc(C(=O)c2cc(O)c(O)c([N+](=O)[O-])c2)cc1
REMARK SMILES IDX 8 1 18 2 9 3 14 4 10 5 12 6 6 7 7 8 5 9 4 10 19 11 3 12
REMARK SMILES IDX 20 13 2 14 1 15 15 16 17 17 16 18 11 19 13 21
REMARK H PARENT 11 20 13 22
ROOT
ATOM      1  C   UNL     1       1.529   8.902  -7.957  1.00  0.00     0.033 A 
ATOM      2  C   UNL     1       0.594   8.689  -8.943  1.00  0.00     0.102 A 
ATOM      3  C   UNL     1       2.549   9.816  -8.080  1.00  0.00     0.063 A 
ATOM      4  C   UNL     1       0.683   9.434 -10.119  1.00  0.00     0.315 A 
ATOM      5  C   UNL     1       2.639  10.560  -9.257  1.00  0.00     0.165 A 
ATOM      6  C   UNL     1       1.705  10.369 -10.276  1.00  0.00     0.237 A 
ENDROOT
BRANCH   1   7
ATOM      7  C   UNL     1       1.433   8.105  -6.697  1.00  0.00     0.193 C 
ATOM      8  O   UNL     1       1.447   8.730  -5.626  1.00  0.00    -0.289 OA
BRANCH   7   9
ATOM      9  C   UNL     1       1.327   6.655  -6.698  1.00  0.00     0.023 A 
ATOM     10  C   UNL     1       0.317   6.028  -5.967  1.00  0.00     0.012 A 
ATOM     11  C   UNL     1       2.234   5.889  -7.431  1.00  0.00     0.012 A 
ATOM     12  C   UNL     1       0.216   4.637  -5.969  1.00  0.00     0.004 A 
ATOM     13  C   UNL     1       2.133   4.498  -7.433  1.00  0.00     0.004 A 
ATOM     14  C   UNL     1       1.123   3.871  -6.702  1.00  0.00    -0.051 A 
ATOM     15  C   UNL     1       1.015   2.385  -6.702  1.00  0.00     0.044 C 
ENDBRANCH   7   9
ENDBRANCH   1   7
BRANCH   4  16
ATOM     16  N   UNL     1      -0.277   9.225 -11.147  1.00  0.00     0.066 N 
ATOM     17  O   UNL     1      -0.578  10.184 -11.898  1.00  0.00    -0.258 OA
ATOM     18  O   UNL     1      -0.793   8.090 -11.273  1.00  0.00    -0.258 OA
ENDBRANCH   4  16
BRANCH   5  19
ATOM     19  O   UNL     1       3.643  11.470  -9.397  1.00  0.00    -0.504 OA
ATOM     20  H   UNL     1       3.927  11.501 -10.325  1.00  0.00     0.293 HD
ENDBRANCH   5  19
BRANCH   6  21
ATOM     21  O   UNL     1       1.804  11.104 -11.422  1.00  0.00    -0.500 OA
ATOM     22  H   UNL     1       1.026  11.677 -11.510  1.00  0.00     0.294 HD
ENDBRANCH   6  21
TORSDOF 5
ENDMDL
MODEL 9
REMARK VINA RESULT:    -3.932      2.344      4.022
REMARK INTER + INTRA:          -5.592
REMARK INTER:                  -4.680
REMARK INTRA:                  -0.913
REMARK UNBOUND:                -0.740
REMARK SMILES Cc1ccc(C(=O)c2cc(O)c(O)c([N+](=O)[O-])c2)cc1
REMARK SMILES IDX 8 1 18 2 9 3 14 4 10 5 12 6 6 7 7 8 5 9 4 10 19 11 3 12
REMARK SMILES IDX 20 13 2 14 1 15 15 16 17 17 16 18 11 19 13 21
REMARK H PARENT 11 20 13 22
ROOT
ATOM      1  C   UNL     1       1.523   9.047  -7.763  1.00  0.00     0.033 A 
ATOM      2  C   UNL     1       1.860   7.747  -7.464  1.00  0.00     0.102 A 
ATOM      3  C   UNL     1       0.933   9.893  -6.854  1.00  0.00     0.063 A 
ATOM      4  C   UNL     1       1.592   7.267  -6.182  1.00  0.00     0.315 A 
ATOM      5  C   UNL     1       0.664   9.413  -5.572  1.00  0.00     0.165 A 
ATOM      6  C   UNL     1       0.994   8.099  -5.236  1.00  0.00     0.237 A 
ENDROOT
BRANCH   1   7
ATOM      7  C   UNL     1       1.810   9.562  -9.136  1.00  0.00     0.193 C 
ATOM      8  O   UNL     1       1.024   9.242 -10.039  1.00  0.00    -0.289 OA
BRANCH   7   9
ATOM      9  C   UNL     1       2.958  10.406  -9.428  1.00  0.00     0.023 A 
ATOM     10  C   UNL     1       4.242   9.979  -9.089  1.00  0.00     0.012 A 
ATOM     11  C   UNL     1       2.775  11.642 -10.047  1.00  0.00     0.012 A 
ATOM     12  C   UNL     1       5.343  10.788  -9.370  1.00  0.00     0.004 A 
ATOM     13  C   UNL     1       3.876  12.453 -10.328  1.00  0.00     0.004 A 
ATOM     14  C   UNL     1       5.160  12.025  -9.989  1.00  0.00    -0.051 A 
ATOM     15  C   UNL     1       6.337  12.891 -10.288  1.00  0.00     0.044 C 
ENDBRANCH   7   9
ENDBRANCH   1   7
BRANCH   4  16
ATOM     16  N   UNL     1       1.934   5.926  -5.858  1.00  0.00     0.066 N 
ATOM     17  O   UNL     1       1.038   5.156  -5.437  1.00  0.00    -0.258 OA
ATOM     18  O   UNL     1       3.121   5.552  -6.003  1.00  0.00    -0.258 OA
ENDBRANCH   4  16
BRANCH   5  19
ATOM     19  O   UNL     1       0.080  10.238  -4.658  1.00  0.00    -0.504 OA
ATOM     20  H   UNL     1       0.071  11.147  -4.999  1.00  0.00     0.293 HD
ENDBRANCH   5  19
BRANCH   6  21
ATOM     21  O   UNL     1       0.727   7.641  -3.979  1.00  0.00    -0.500 OA
ATOM     22  H   UNL     1       1.335   6.919  -3.758  1.00  0.00     0.294 HD
ENDBRANCH   6  21
TORSDOF 5
ENDMDL
