MODEL 1
REMARK VINA RESULT:    -5.261      0.000      0.000
REMARK INTER + INTRA:          -7.241
REMARK INTER:                  -6.491
REMARK INTRA:                  -0.750
REMARK UNBOUND:                -0.750
REMARK SMILES Cc1ccc(C(=O)c2cc(O)c(O)c([N+](=O)[O-])c2)cc1
REMARK SMILES IDX 8 1 18 2 9 3 14 4 10 5 12 6 6 7 7 8 5 9 4 10 19 11 3 12
REMARK SMILES IDX 20 13 2 14 1 15 15 16 17 17 16 18 11 19 13 21
REMARK H PARENT 11 20 13 22
ROOT
ATOM      1  C   UNL     1      -5.003   6.188  -4.342  1.00  0.00     0.033 A 
ATOM      2  C   UNL     1      -5.130   6.290  -2.976  1.00  0.00     0.102 A 
ATOM      3  C   UNL     1      -4.282   5.189  -4.953  1.00  0.00     0.063 A 
ATOM      4  C   UNL     1      -4.500   5.337  -2.175  1.00  0.00     0.315 A 
ATOM      5  C   UNL     1      -3.651   4.237  -4.152  1.00  0.00     0.165 A 
ATOM      6  C   UNL     1      -3.761   4.311  -2.762  1.00  0.00     0.237 A 
ENDROOT
BRANCH   1   7
ATOM      7  C   UNL     1      -5.678   7.208  -5.200  1.00  0.00     0.193 C 
ATOM      8  O   UNL     1      -6.097   6.834  -6.306  1.00  0.00    -0.289 OA
BRANCH   7   9
ATOM      9  C   UNL     1      -5.849   8.590  -4.781  1.00  0.00     0.023 A 
ATOM     10  C   UNL     1      -4.938   9.562  -5.192  1.00  0.00     0.012 A 
ATOM     11  C   UNL     1      -6.926   8.943  -3.967  1.00  0.00     0.012 A 
ATOM     12  C   UNL     1      -5.103  10.887  -4.790  1.00  0.00     0.004 A 
ATOM     13  C   UNL     1      -7.091  10.268  -3.564  1.00  0.00     0.004 A 
ATOM     14  C   UNL     1      -6.180  11.241  -3.975  1.00  0.00    -0.051 A 
ATOM     15  C   UNL     1      -6.355  12.657  -3.544  1.00  0.00     0.044 C 
ENDBRANCH   7   9
ENDBRANCH   1   7
BRANCH   4  16
ATOM     16  N   UNL     1      -4.622   5.429  -0.762  1.00  0.00     0.066 N 
ATOM     17  O   UNL     1      -5.667   5.925  -0.275  1.00  0.00    -0.258 OA
ATOM     18  O   UNL     1      -3.684   5.011  -0.044  1.00  0.00    -0.258 OA
ENDBRANCH   4  16
BRANCH   5  19
ATOM     19  O   UNL     1      -2.932   3.240  -4.739  1.00  0.00    -0.504 OA
ATOM     20  H   UNL     1      -2.561   3.557  -5.578  1.00  0.00     0.293 HD
ENDBRANCH   5  19
BRANCH   6  21
ATOM     21  O   UNL     1      -3.140   3.373  -1.989  1.00  0.00    -0.500 OA
ATOM     22  H   UNL     1      -2.251   3.200  -2.338  1.00  0.00     0.294 HD
ENDBRANCH   6  21
TORSDOF 5
ENDMDL
MODEL 2
REMARK VINA RESULT:    -5.249      2.028      3.553
REMARK INTER + INTRA:          -7.226
REMARK INTER:                  -6.484
REMARK INTRA:                  -0.742
REMARK UNBOUND:                -0.750
REMARK SMILES Cc1ccc(C(=O)c2cc(O)c(O)c([N+](=O)[O-])c2)cc1
REMARK SMILES IDX 8 1 18 2 9 3 14 4 10 5 12 6 6 7 7 8 5 9 4 10 19 11 3 12
REMARK SMILES IDX 20 13 2 14 1 15 15 16 17 17 16 18 11 19 13 21
REMARK H PARENT 11 20 13 22
ROOT
ATOM      1  C   UNL     1      -4.334   7.168  -2.928  1.00  0.00     0.033 A 
ATOM      2  C   UNL     1      -3.834   6.427  -3.974  1.00  0.00     0.102 A 
ATOM      3  C   UNL     1      -4.441   6.676  -1.649  1.00  0.00     0.063 A 
ATOM      4  C   UNL     1      -3.415   5.120  -3.725  1.00  0.00     0.315 A 
ATOM      5  C   UNL     1      -4.024   5.369  -1.400  1.00  0.00     0.165 A 
ATOM      6  C   UNL     1      -3.510   4.590  -2.438  1.00  0.00     0.237 A 
ENDROOT
BRANCH   1   7
ATOM      7  C   UNL     1      -4.782   8.568  -3.195  1.00  0.00     0.193 C 
ATOM      8  O   UNL     1      -4.572   9.411  -2.310  1.00  0.00    -0.289 OA
BRANCH   7   9
ATOM      9  C   UNL     1      -5.439   8.954  -4.434  1.00  0.00     0.023 A 
ATOM     10  C   UNL     1      -6.831   9.023  -4.493  1.00  0.00     0.012 A 
ATOM     11  C   UNL     1      -4.677   9.255  -5.562  1.00  0.00     0.012 A 
ATOM     12  C   UNL     1      -7.460   9.394  -5.681  1.00  0.00     0.004 A 
ATOM     13  C   UNL     1      -5.307   9.626  -6.751  1.00  0.00     0.004 A 
ATOM     14  C   UNL     1      -6.699   9.695  -6.811  1.00  0.00    -0.051 A 
ATOM     15  C   UNL     1      -7.372  10.090  -8.081  1.00  0.00     0.044 C 
ENDBRANCH   7   9
ENDBRANCH   1   7
BRANCH   4  16
ATOM     16  N   UNL     1      -2.896   4.342  -4.795  1.00  0.00     0.066 N 
ATOM     17  O   UNL     1      -2.128   4.887  -5.624  1.00  0.00    -0.258 OA
ATOM     18  O   UNL     1      -3.218   3.134  -4.878  1.00  0.00    -0.258 OA
ENDBRANCH   4  16
BRANCH   5  19
ATOM     19  O   UNL     1      -4.122   4.865  -0.138  1.00  0.00    -0.504 OA
ATOM     20  H   UNL     1      -3.234   4.769   0.244  1.00  0.00     0.293 HD
ENDBRANCH   5  19
BRANCH   6  21
ATOM     21  O   UNL     1      -3.104   3.313  -2.182  1.00  0.00    -0.500 OA
ATOM     22  H   UNL     1      -3.375   2.732  -2.910  1.00  0.00     0.294 HD
ENDBRANCH   6  21
TORSDOF 5
ENDMDL
MODEL 3
REMARK VINA RESULT:    -4.582      1.833      2.251
REMARK INTER + INTRA:          -6.403
REMARK INTER:                  -5.892
REMARK INTRA:                  -0.511
REMARK UNBOUND:                -0.750
REMARK SMILES Cc1ccc(C(=O)c2cc(O)c(O)c([N+](=O)[O-])c2)cc1
REMARK SMILES IDX 8 1 18 2 9 3 14 4 10 5 12 6 6 7 7 8 5 9 4 10 19 11 3 12
REMARK SMILES IDX 20 13 2 14 1 15 15 16 17 17 16 18 11 19 13 21
REMARK H PARENT 11 20 13 22
ROOT
ATOM      1  C   UNL     1      -3.261   6.337  -3.889  1.00  0.00     0.033 A 
ATOM      2  C   UNL     1      -3.613   6.292  -2.559  1.00  0.00     0.102 A 
ATOM      3  C   UNL     1      -3.075   5.207  -4.650  1.00  0.00     0.063 A 
ATOM      4  C   UNL     1      -3.789   5.046  -1.958  1.00  0.00     0.315 A 
ATOM      5  C   UNL     1      -3.250   3.961  -4.048  1.00  0.00     0.165 A 
ATOM      6  C   UNL     1      -3.607   3.880  -2.702  1.00  0.00     0.237 A 
ENDROOT
BRANCH   1   7
ATOM      7  C   UNL     1      -3.073   7.671  -4.533  1.00  0.00     0.193 C 
ATOM      8  O   UNL     1      -1.919   8.124  -4.577  1.00  0.00    -0.289 OA
BRANCH   7   9
ATOM      9  C   UNL     1      -4.179   8.429  -5.095  1.00  0.00     0.023 A 
ATOM     10  C   UNL     1      -5.442   8.359  -4.507  1.00  0.00     0.012 A 
ATOM     11  C   UNL     1      -3.978   9.226  -6.221  1.00  0.00     0.012 A 
ATOM     12  C   UNL     1      -6.503   9.086  -5.045  1.00  0.00     0.004 A 
ATOM     13  C   UNL     1      -5.040   9.954  -6.761  1.00  0.00     0.004 A 
ATOM     14  C   UNL     1      -6.303   9.884  -6.172  1.00  0.00    -0.051 A 
ATOM     15  C   UNL     1      -7.438  10.660  -6.749  1.00  0.00     0.044 C 
ENDBRANCH   7   9
ENDBRANCH   1   7
BRANCH   4  16
ATOM     16  N   UNL     1      -4.152   4.983  -0.585  1.00  0.00     0.066 N 
ATOM     17  O   UNL     1      -5.341   5.220  -0.261  1.00  0.00    -0.258 OA
ATOM     18  O   UNL     1      -3.275   4.693   0.262  1.00  0.00    -0.258 OA
ENDBRANCH   4  16
BRANCH   5  19
ATOM     19  O   UNL     1      -3.070   2.830  -4.787  1.00  0.00    -0.504 OA
ATOM     20  H   UNL     1      -2.136   2.565  -4.754  1.00  0.00     0.293 HD
ENDBRANCH   5  19
BRANCH   6  21
ATOM     21  O   UNL     1      -3.776   2.655  -2.124  1.00  0.00    -0.500 OA
ATOM     22  H   UNL     1      -2.953   2.383  -1.690  1.00  0.00     0.294 HD
ENDBRANCH   6  21
TORSDOF 5
ENDMDL
MODEL 4
REMARK VINA RESULT:    -4.474      2.393      4.151
REMARK INTER + INTRA:          -6.270
REMARK INTER:                  -5.299
REMARK INTRA:                  -0.971
REMARK UNBOUND:                -0.750
REMARK SMILES Cc1ccc(C(=O)c2cc(O)c(O)c([N+](=O)[O-])c2)cc1
REMARK SMILES IDX 8 1 18 2 9 3 14 4 10 5 12 6 6 7 7 8 5 9 4 10 19 11 3 12
REMARK SMILES IDX 20 13 2 14 1 15 15 16 17 17 16 18 11 19 13 21
REMARK H PARENT 11 20 13 22
ROOT
ATOM      1  C   UNL     1      -6.726   9.311  -4.246  1.00  0.00     0.033 A 
ATOM      2  C   UNL     1      -5.642   8.464  -4.251  1.00  0.00     0.102 A 
ATOM      3  C   UNL     1      -7.878   9.044  -3.544  1.00  0.00     0.063 A 
ATOM      4  C   UNL     1      -5.713   7.285  -3.510  1.00  0.00     0.315 A 
ATOM      5  C   UNL     1      -7.950   7.864  -2.804  1.00  0.00     0.165 A 
ATOM      6  C   UNL     1      -6.867   6.984  -2.786  1.00  0.00     0.237 A 
ENDROOT
BRANCH   1   7
ATOM      7  C   UNL     1      -6.650  10.574  -5.040  1.00  0.00     0.193 C 
ATOM      8  O   UNL     1      -6.812  10.486  -6.266  1.00  0.00    -0.289 OA
BRANCH   7   9
ATOM      9  C   UNL     1      -6.398  11.867  -4.424  1.00  0.00     0.023 A 
ATOM     10  C   UNL     1      -7.258  12.937  -4.672  1.00  0.00     0.012 A 
ATOM     11  C   UNL     1      -5.297  12.038  -3.586  1.00  0.00     0.012 A 
ATOM     12  C   UNL     1      -7.017  14.177  -4.081  1.00  0.00     0.004 A 
ATOM     13  C   UNL     1      -5.055  13.279  -2.994  1.00  0.00     0.004 A 
ATOM     14  C   UNL     1      -5.915  14.349  -3.242  1.00  0.00    -0.051 A 
ATOM     15  C   UNL     1      -5.656  15.675  -2.612  1.00  0.00     0.044 C 
ENDBRANCH   7   9
ENDBRANCH   1   7
BRANCH   4  16
ATOM     16  N   UNL     1      -4.600   6.400  -3.505  1.00  0.00     0.066 N 
ATOM     17  O   UNL     1      -3.444   6.881  -3.424  1.00  0.00    -0.258 OA
ATOM     18  O   UNL     1      -4.806   5.166  -3.580  1.00  0.00    -0.258 OA
ENDBRANCH   4  16
BRANCH   5  19
ATOM     19  O   UNL     1      -9.083   7.583  -2.101  1.00  0.00    -0.504 OA
ATOM     20  H   UNL     1      -9.840   8.035  -2.510  1.00  0.00     0.293 HD
ENDBRANCH   5  19
BRANCH   6  21
ATOM     21  O   UNL     1      -6.949   5.833  -2.058  1.00  0.00    -0.500 OA
ATOM     22  H   UNL     1      -6.181   5.271  -2.248  1.00  0.00     0.294 HD
ENDBRANCH   6  21
TORSDOF 5
ENDMDL
MODEL 5
REMARK VINA RESULT:    -4.447      3.611      4.530
REMARK INTER + INTRA:          -6.236
REMARK INTER:                  -5.269
REMARK INTRA:                  -0.967
REMARK UNBOUND:                -0.750
REMARK SMILES Cc1ccc(C(=O)c2cc(O)c(O)c([N+](=O)[O-])c2)cc1
REMARK SMILES IDX 8 1 18 2 9 3 14 4 10 5 12 6 6 7 7 8 5 9 4 10 19 11 3 12
REMARK SMILES IDX 20 13 2 14 1 15 15 16 17 17 16 18 11 19 13 21
REMARK H PARENT 11 20 13 22
ROOT
ATOM      1  C   UNL     1      -5.153   9.422  -5.527  1.00  0.00     0.033 A 
ATOM      2  C   UNL     1      -5.370   8.359  -4.682  1.00  0.00     0.102 A 
ATOM      3  C   UNL     1      -3.959   9.628  -6.176  1.00  0.00     0.063 A 
ATOM      4  C   UNL     1      -4.334   7.448  -4.476  1.00  0.00     0.315 A 
ATOM      5  C   UNL     1      -2.922   8.718  -5.969  1.00  0.00     0.165 A 
ATOM      6  C   UNL     1      -3.110   7.627  -5.119  1.00  0.00     0.237 A 
ENDROOT
BRANCH   1   7
ATOM      7  C   UNL     1      -6.263  10.398  -5.749  1.00  0.00     0.193 C 
ATOM      8  O   UNL     1      -6.460  11.245  -4.865  1.00  0.00    -0.289 OA
BRANCH   7   9
ATOM      9  C   UNL     1      -7.093  10.377  -6.943  1.00  0.00     0.023 A 
ATOM     10  C   UNL     1      -7.741   9.201  -7.321  1.00  0.00     0.012 A 
ATOM     11  C   UNL     1      -7.241  11.532  -7.709  1.00  0.00     0.012 A 
ATOM     12  C   UNL     1      -8.537   9.181  -8.466  1.00  0.00     0.004 A 
ATOM     13  C   UNL     1      -8.037  11.513  -8.855  1.00  0.00     0.004 A 
ATOM     14  C   UNL     1      -8.686  10.337  -9.233  1.00  0.00    -0.051 A 
ATOM     15  C   UNL     1      -9.536  10.315 -10.458  1.00  0.00     0.044 C 
ENDBRANCH   7   9
ENDBRANCH   1   7
BRANCH   4  16
ATOM     16  N   UNL     1      -4.544   6.344  -3.606  1.00  0.00     0.066 N 
ATOM     17  O   UNL     1      -5.631   5.721  -3.669  1.00  0.00    -0.258 OA
ATOM     18  O   UNL     1      -3.637   6.025  -2.802  1.00  0.00    -0.258 OA
ENDBRANCH   4  16
BRANCH   5  19
ATOM     19  O   UNL     1      -1.731   8.905  -6.605  1.00  0.00    -0.504 OA
ATOM     20  H   UNL     1      -1.570   8.169  -7.217  1.00  0.00     0.293 HD
ENDBRANCH   5  19
BRANCH   6  21
ATOM     21  O   UNL     1      -2.088   6.744  -4.925  1.00  0.00    -0.500 OA
ATOM     22  H   UNL     1      -1.287   7.224  -4.665  1.00  0.00     0.294 HD
ENDBRANCH   6  21
TORSDOF 5
ENDMDL
MODEL 6
REMARK VINA RESULT:    -4.430      3.656      6.584
REMARK INTER + INTRA:          -6.215
REMARK INTER:                  -5.230
REMARK INTRA:                  -0.985
REMARK UNBOUND:                -0.750
REMARK SMILES Cc1ccc(C(=O)c2cc(O)c(O)c([N+](=O)[O-])c2)cc1
REMARK SMILES IDX 8 1 18 2 9 3 14 4 10 5 12 6 6 7 7 8 5 9 4 10 19 11 3 12
REMARK SMILES IDX 20 13 2 14 1 15 15 16 17 17 16 18 11 19 13 21
REMARK H PARENT 11 20 13 22
ROOT
ATOM      1  C   UNL     1      -5.407   9.510  -5.313  1.00  0.00     0.033 A 
ATOM      2  C   UNL     1      -5.489  10.548  -4.414  1.00  0.00     0.102 A 
ATOM      3  C   UNL     1      -6.056   9.520  -6.525  1.00  0.00     0.063 A 
ATOM      4  C   UNL     1      -6.263  11.659  -4.747  1.00  0.00     0.315 A 
ATOM      5  C   UNL     1      -6.831  10.631  -6.858  1.00  0.00     0.165 A 
ATOM      6  C   UNL     1      -6.934  11.702  -5.969  1.00  0.00     0.237 A 
ENDROOT
BRANCH   1   7
ATOM      7  C   UNL     1      -4.578   8.319  -4.957  1.00  0.00     0.193 C 
ATOM      8  O   UNL     1      -3.704   7.972  -5.765  1.00  0.00    -0.289 OA
BRANCH   7   9
ATOM      9  C   UNL     1      -4.767   7.580  -3.719  1.00  0.00     0.023 A 
ATOM     10  C   UNL     1      -6.033   7.102  -3.379  1.00  0.00     0.012 A 
ATOM     11  C   UNL     1      -3.683   7.348  -2.873  1.00  0.00     0.012 A 
ATOM     12  C   UNL     1      -6.214   6.393  -2.192  1.00  0.00     0.004 A 
ATOM     13  C   UNL     1      -3.864   6.638  -1.685  1.00  0.00     0.004 A 
ATOM     14  C   UNL     1      -5.129   6.160  -1.344  1.00  0.00    -0.051 A 
ATOM     15  C   UNL     1      -5.324   5.403  -0.075  1.00  0.00     0.044 C 
ENDBRANCH   7   9
ENDBRANCH   1   7
BRANCH   4  16
ATOM     16  N   UNL     1      -6.356  12.740  -3.828  1.00  0.00     0.066 N 
ATOM     17  O   UNL     1      -6.281  12.499  -2.599  1.00  0.00    -0.258 OA
ATOM     18  O   UNL     1      -6.510  13.902  -4.272  1.00  0.00    -0.258 OA
ENDBRANCH   4  16
BRANCH   5  19
ATOM     19  O   UNL     1      -7.480  10.659  -8.056  1.00  0.00    -0.504 OA
ATOM     20  H   UNL     1      -8.182   9.987  -8.061  1.00  0.00     0.293 HD
ENDBRANCH   5  19
BRANCH   6  21
ATOM     21  O   UNL     1      -7.694  12.783  -6.306  1.00  0.00    -0.500 OA
ATOM     22  H   UNL     1      -8.496  12.802  -5.760  1.00  0.00     0.294 HD
ENDBRANCH   6  21
TORSDOF 5
ENDMDL
MODEL 7
REMARK VINA RESULT:    -4.413      3.752      6.995
REMARK INTER + INTRA:          -6.194
REMARK INTER:                  -5.211
REMARK INTRA:                  -0.983
REMARK UNBOUND:                -0.750
REMARK SMILES Cc1ccc(C(=O)c2cc(O)c(O)c([N+](=O)[O-])c2)cc1
REMARK SMILES IDX 8 1 18 2 9 3 14 4 10 5 12 6 6 7 7 8 5 9 4 10 19 11 3 12
REMARK SMILES IDX 20 13 2 14 1 15 15 16 17 17 16 18 11 19 13 21
REMARK H PARENT 11 20 13 22
ROOT
ATOM      1  C   UNL     1      -5.450   9.559  -5.237  1.00  0.00     0.033 A 
ATOM      2  C   UNL     1      -6.172   9.586  -6.407  1.00  0.00     0.102 A 
ATOM      3  C   UNL     1      -5.443  10.601  -4.340  1.00  0.00     0.063 A 
ATOM      4  C   UNL     1      -6.931  10.720  -6.696  1.00  0.00     0.315 A 
ATOM      5  C   UNL     1      -6.201  11.735  -4.629  1.00  0.00     0.165 A 
ATOM      6  C   UNL     1      -6.946  11.795  -5.808  1.00  0.00     0.237 A 
ENDROOT
BRANCH   1   7
ATOM      7  C   UNL     1      -4.637   8.344  -4.927  1.00  0.00     0.193 C 
ATOM      8  O   UNL     1      -3.799   7.990  -5.770  1.00  0.00    -0.289 OA
BRANCH   7   9
ATOM      9  C   UNL     1      -4.800   7.590  -3.695  1.00  0.00     0.023 A 
ATOM     10  C   UNL     1      -3.695   7.330  -2.884  1.00  0.00     0.012 A 
ATOM     11  C   UNL     1      -6.062   7.127  -3.323  1.00  0.00     0.012 A 
ATOM     12  C   UNL     1      -3.852   6.607  -1.702  1.00  0.00     0.004 A 
ATOM     13  C   UNL     1      -6.220   6.403  -2.140  1.00  0.00     0.004 A 
ATOM     14  C   UNL     1      -5.115   6.143  -1.329  1.00  0.00    -0.051 A 
ATOM     15  C   UNL     1      -5.282   5.369  -0.066  1.00  0.00     0.044 C 
ENDBRANCH   7   9
ENDBRANCH   1   7
BRANCH   4  16
ATOM     16  N   UNL     1      -7.682  10.763  -7.903  1.00  0.00     0.066 N 
ATOM     17  O   UNL     1      -8.093   9.687  -8.399  1.00  0.00    -0.258 OA
ATOM     18  O   UNL     1      -7.913  11.875  -8.434  1.00  0.00    -0.258 OA
ENDBRANCH   4  16
BRANCH   5  19
ATOM     19  O   UNL     1      -6.206  12.777  -3.751  1.00  0.00    -0.504 OA
ATOM     20  H   UNL     1      -6.485  13.587  -4.209  1.00  0.00     0.293 HD
ENDBRANCH   5  19
BRANCH   6  21
ATOM     21  O   UNL     1      -7.684  12.910  -6.079  1.00  0.00    -0.500 OA
ATOM     22  H   UNL     1      -7.539  13.181  -6.999  1.00  0.00     0.294 HD
ENDBRANCH   6  21
TORSDOF 5
ENDMDL
MODEL 8
REMARK VINA RESULT:    -4.387      1.290      2.926
REMARK INTER + INTRA:          -6.163
REMARK INTER:                  -5.494
REMARK INTRA:                  -0.670
REMARK UNBOUND:                -0.750
REMARK SMILES Cc1ccc(C(=O)c2cc(O)c(O)c([N+](=O)[O-])c2)cc1
REMARK SMILES IDX 8 1 18 2 9 3 14 4 10 5 12 6 6 7 7 8 5 9 4 10 19 11 3 12
REMARK SMILES IDX 20 13 2 14 1 15 15 16 17 17 16 18 11 19 13 21
REMARK H PARENT 11 20 13 22
ROOT
ATOM      1  C   UNL     1      -5.218   6.755  -4.389  1.00  0.00     0.033 A 
ATOM      2  C   UNL     1      -4.338   5.890  -4.998  1.00  0.00     0.102 A 
ATOM      3  C   UNL     1      -5.566   6.655  -3.064  1.00  0.00     0.063 A 
ATOM      4  C   UNL     1      -3.774   4.867  -4.236  1.00  0.00     0.315 A 
ATOM      5  C   UNL     1      -5.003   5.631  -2.301  1.00  0.00     0.165 A 
ATOM      6  C   UNL     1      -4.106   4.737  -2.887  1.00  0.00     0.237 A 
ENDROOT
BRANCH   1   7
ATOM      7  C   UNL     1      -5.821   7.851  -5.206  1.00  0.00     0.193 C 
ATOM      8  O   UNL     1      -6.227   7.558  -6.341  1.00  0.00    -0.289 OA
BRANCH   7   9
ATOM      9  C   UNL     1      -5.941   9.214  -4.714  1.00  0.00     0.023 A 
ATOM     10  C   UNL     1      -7.016   9.570  -3.898  1.00  0.00     0.012 A 
ATOM     11  C   UNL     1      -4.982  10.166  -5.058  1.00  0.00     0.012 A 
ATOM     12  C   UNL     1      -7.130  10.877  -3.427  1.00  0.00     0.004 A 
ATOM     13  C   UNL     1      -5.095  11.475  -4.586  1.00  0.00     0.004 A 
ATOM     14  C   UNL     1      -6.170  11.830  -3.770  1.00  0.00    -0.051 A 
ATOM     15  C   UNL     1      -6.293  13.228  -3.267  1.00  0.00     0.044 C 
ENDBRANCH   7   9
ENDBRANCH   1   7
BRANCH   4  16
ATOM     16  N   UNL     1      -2.863   3.965  -4.850  1.00  0.00     0.066 N 
ATOM     17  O   UNL     1      -1.817   4.422  -5.371  1.00  0.00    -0.258 OA
ATOM     18  O   UNL     1      -3.131   2.741  -4.853  1.00  0.00    -0.258 OA
ENDBRANCH   4  16
BRANCH   5  19
ATOM     19  O   UNL     1      -5.337   5.517  -0.985  1.00  0.00    -0.504 OA
ATOM     20  H   UNL     1      -4.902   6.221  -0.477  1.00  0.00     0.293 HD
ENDBRANCH   5  19
BRANCH   6  21
ATOM     21  O   UNL     1      -3.562   3.740  -2.131  1.00  0.00    -0.500 OA
ATOM     22  H   UNL     1      -3.588   3.990  -1.194  1.00  0.00     0.294 HD
ENDBRANCH   6  21
TORSDOF 5
ENDMDL
MODEL 9
REMARK VINA RESULT:    -4.384      1.969      2.565
REMARK INTER + INTRA:          -6.159
REMARK INTER:                  -5.496
REMARK INTRA:                  -0.663
REMARK UNBOUND:                -0.750
REMARK SMILES Cc1ccc(C(=O)c2cc(O)c(O)c([N+](=O)[O-])c2)cc1
REMARK SMILES IDX 8 1 18 2 9 3 14 4 10 5 12 6 6 7 7 8 5 9 4 10 19 11 3 12
REMARK SMILES IDX 20 13 2 14 1 15 15 16 17 17 16 18 11 19 13 21
REMARK H PARENT 11 20 13 22
ROOT
ATOM      1  C   UNL     1      -4.586   7.528  -3.350  1.00  0.00     0.033 A 
ATOM      2  C   UNL     1      -4.816   7.000  -2.101  1.00  0.00     0.102 A 
ATOM      3  C   UNL     1      -3.886   6.858  -4.326  1.00  0.00     0.063 A 
ATOM      4  C   UNL     1      -4.319   5.729  -1.812  1.00  0.00     0.315 A 
ATOM      5  C   UNL     1      -3.389   5.587  -4.036  1.00  0.00     0.165 A 
ATOM      6  C   UNL     1      -3.606   5.022  -2.779  1.00  0.00     0.237 A 
ENDROOT
BRANCH   1   7
ATOM      7  C   UNL     1      -5.118   8.889  -3.660  1.00  0.00     0.193 C 
ATOM      8  O   UNL     1      -4.979   9.765  -2.792  1.00  0.00    -0.289 OA
BRANCH   7   9
ATOM      9  C   UNL     1      -5.775   9.201  -4.919  1.00  0.00     0.023 A 
ATOM     10  C   UNL     1      -7.167   9.207  -4.996  1.00  0.00     0.012 A 
ATOM     11  C   UNL     1      -5.012   9.496  -6.049  1.00  0.00     0.012 A 
ATOM     12  C   UNL     1      -7.797   9.507  -6.204  1.00  0.00     0.004 A 
ATOM     13  C   UNL     1      -5.642   9.797  -7.257  1.00  0.00     0.004 A 
ATOM     14  C   UNL     1      -7.035   9.802  -7.335  1.00  0.00    -0.051 A 
ATOM     15  C   UNL     1      -7.708  10.121  -8.626  1.00  0.00     0.044 C 
ENDBRANCH   7   9
ENDBRANCH   1   7
BRANCH   4  16
ATOM     16  N   UNL     1      -4.550   5.170  -0.525  1.00  0.00     0.066 N 
ATOM     17  O   UNL     1      -5.732   5.032  -0.127  1.00  0.00    -0.258 OA
ATOM     18  O   UNL     1      -3.567   4.831   0.174  1.00  0.00    -0.258 OA
ENDBRANCH   4  16
BRANCH   5  19
ATOM     19  O   UNL     1      -2.693   4.908  -4.992  1.00  0.00    -0.504 OA
ATOM     20  H   UNL     1      -1.905   4.503  -4.594  1.00  0.00     0.293 HD
ENDBRANCH   5  19
BRANCH   6  21
ATOM     21  O   UNL     1      -3.115   3.778  -2.508  1.00  0.00    -0.500 OA
ATOM     22  H   UNL     1      -2.261   3.660  -2.954  1.00  0.00     0.294 HD
ENDBRANCH   6  21
TORSDOF 5
ENDMDL
