MODEL 1
REMARK VINA RESULT:    -6.970      0.000      0.000
REMARK INTER + INTRA:          -8.772
REMARK INTER:                  -8.192
REMARK INTRA:                  -0.579
REMARK UNBOUND:                -0.579
REMARK SMILES O=C(O)c1cc(-c2ccc(F)cc2F)ccc1O
REMARK SMILES IDX 6 1 5 2 15 3 4 4 17 5 16 6 7 7 13 8 12 9 8 10 10 11 9 12
REMARK SMILES IDX 14 13 11 14 2 15 1 16 3 17 18 19
REMARK H PARENT 3 18 18 20
ROOT
ATOM      1  C   UNL     1      -4.793   6.769  -3.712  1.00  0.00    -0.014 A 
ATOM      2  C   UNL     1      -4.938   6.511  -2.349  1.00  0.00     0.028 A 
ATOM      3  C   UNL     1      -4.117   5.860  -4.526  1.00  0.00     0.013 A 
ATOM      4  C   UNL     1      -4.405   5.345  -1.799  1.00  0.00     0.102 A 
ATOM      5  C   UNL     1      -3.729   4.436  -2.613  1.00  0.00     0.130 A 
ATOM      6  C   UNL     1      -3.585   4.694  -3.977  1.00  0.00     0.048 A 
ENDROOT
BRANCH   1   7
ATOM      7  C   UNL     1      -5.344   7.979  -4.283  1.00  0.00     0.018 A 
ATOM      8  C   UNL     1      -6.640   8.381  -3.957  1.00  0.00     0.133 A 
ATOM      9  C   UNL     1      -7.167   9.548  -4.509  1.00  0.00     0.079 A 
ATOM     10  C   UNL     1      -4.576   8.745  -5.160  1.00  0.00     0.015 A 
ATOM     11  C   UNL     1      -6.400  10.313  -5.387  1.00  0.00     0.126 A 
ATOM     12  C   UNL     1      -5.104   9.911  -5.712  1.00  0.00     0.040 A 
ATOM     13  F   UNL     1      -7.392   7.655  -3.117  1.00  0.00    -0.206 F 
ATOM     14  F   UNL     1      -6.905  11.434  -5.918  1.00  0.00    -0.207 F 
ENDBRANCH   1   7
BRANCH   4  15
ATOM     15  C   UNL     1      -4.567   5.094  -0.374  1.00  0.00     0.339 C 
ATOM     16  O   UNL     1      -3.651   4.853   0.417  1.00  0.00    -0.246 OA
BRANCH  15  17
ATOM     17  O   UNL     1      -5.868   5.155   0.019  1.00  0.00    -0.478 OA
ATOM     18  H   UNL     1      -6.201   4.282   0.316  1.00  0.00     0.297 HD
ENDBRANCH  15  17
ENDBRANCH   4  15
BRANCH   5  19
ATOM     19  O   UNL     1      -3.202   3.290  -2.095  1.00  0.00    -0.507 OA
ATOM     20  H   UNL     1      -2.231   3.359  -2.097  1.00  0.00     0.293 HD
ENDBRANCH   5  19
TORSDOF 4
ENDMDL
MODEL 2
REMARK VINA RESULT:    -6.963      1.655      3.154
REMARK INTER + INTRA:          -8.763
REMARK INTER:                  -8.193
REMARK INTRA:                  -0.569
REMARK UNBOUND:                -0.579
REMARK SMILES O=C(O)c1cc(-c2ccc(F)cc2F)ccc1O
REMARK SMILES IDX 6 1 5 2 15 3 4 4 17 5 16 6 7 7 13 8 12 9 8 10 10 11 9 12
REMARK SMILES IDX 14 13 11 14 2 15 1 16 3 17 18 19
REMARK H PARENT 3 18 18 20
ROOT
ATOM      1  C   UNL     1      -4.716   6.811  -3.697  1.00  0.00    -0.014 A 
ATOM      2  C   UNL     1      -4.032   5.932  -4.536  1.00  0.00     0.028 A 
ATOM      3  C   UNL     1      -4.851   6.517  -2.340  1.00  0.00     0.013 A 
ATOM      4  C   UNL     1      -3.482   4.759  -4.018  1.00  0.00     0.102 A 
ATOM      5  C   UNL     1      -3.617   4.465  -2.661  1.00  0.00     0.130 A 
ATOM      6  C   UNL     1      -4.301   5.345  -1.822  1.00  0.00     0.048 A 
ENDROOT
BRANCH   1   7
ATOM      7  C   UNL     1      -5.288   8.027  -4.233  1.00  0.00     0.018 A 
ATOM      8  C   UNL     1      -4.545   8.825  -5.105  1.00  0.00     0.133 A 
ATOM      9  C   UNL     1      -5.101   9.997  -5.620  1.00  0.00     0.079 A 
ATOM     10  C   UNL     1      -6.583   8.400  -3.878  1.00  0.00     0.015 A 
ATOM     11  C   UNL     1      -6.396  10.370  -5.264  1.00  0.00     0.126 A 
ATOM     12  C   UNL     1      -7.137   9.571  -4.393  1.00  0.00     0.040 A 
ATOM     13  F   UNL     1      -3.298   8.482  -5.454  1.00  0.00    -0.206 F 
ATOM     14  F   UNL     1      -6.929  11.495  -5.757  1.00  0.00    -0.207 F 
ENDBRANCH   1   7
BRANCH   4  15
ATOM     15  C   UNL     1      -2.770   3.854  -4.911  1.00  0.00     0.339 C 
ATOM     16  O   UNL     1      -3.016   2.654  -5.054  1.00  0.00    -0.246 OA
BRANCH  15  17
ATOM     17  O   UNL     1      -1.776   4.479  -5.597  1.00  0.00    -0.478 OA
ATOM     18  H   UNL     1      -1.325   3.871  -6.220  1.00  0.00     0.297 HD
ENDBRANCH  15  17
ENDBRANCH   4  15
BRANCH   5  19
ATOM     19  O   UNL     1      -3.086   3.325  -2.136  1.00  0.00    -0.507 OA
ATOM     20  H   UNL     1      -2.661   2.815  -2.847  1.00  0.00     0.293 HD
ENDBRANCH   5  19
TORSDOF 4
ENDMDL
MODEL 3
REMARK VINA RESULT:    -6.962      1.232      2.713
REMARK INTER + INTRA:          -8.763
REMARK INTER:                  -8.196
REMARK INTRA:                  -0.566
REMARK UNBOUND:                -0.579
REMARK SMILES O=C(O)c1cc(-c2ccc(F)cc2F)ccc1O
REMARK SMILES IDX 6 1 5 2 15 3 4 4 17 5 16 6 7 7 13 8 12 9 8 10 10 11 9 12
REMARK SMILES IDX 14 13 11 14 2 15 1 16 3 17 18 19
REMARK H PARENT 3 18 18 20
ROOT
ATOM      1  C   UNL     1      -4.754   6.790  -3.679  1.00  0.00    -0.014 A 
ATOM      2  C   UNL     1      -4.057   5.924  -4.521  1.00  0.00     0.028 A 
ATOM      3  C   UNL     1      -4.894   6.484  -2.326  1.00  0.00     0.013 A 
ATOM      4  C   UNL     1      -3.500   4.751  -4.010  1.00  0.00     0.102 A 
ATOM      5  C   UNL     1      -3.640   4.446  -2.656  1.00  0.00     0.130 A 
ATOM      6  C   UNL     1      -4.337   5.313  -1.814  1.00  0.00     0.048 A 
ENDROOT
BRANCH   1   7
ATOM      7  C   UNL     1      -5.333   8.006  -4.209  1.00  0.00     0.018 A 
ATOM      8  C   UNL     1      -6.638   8.365  -3.871  1.00  0.00     0.133 A 
ATOM      9  C   UNL     1      -7.193   9.538  -4.385  1.00  0.00     0.079 A 
ATOM     10  C   UNL     1      -4.583   8.819  -5.058  1.00  0.00     0.015 A 
ATOM     11  C   UNL     1      -6.443  10.350  -5.234  1.00  0.00     0.126 A 
ATOM     12  C   UNL     1      -5.138   9.991  -5.571  1.00  0.00     0.040 A 
ATOM     13  F   UNL     1      -7.374   7.593  -3.059  1.00  0.00    -0.206 F 
ATOM     14  F   UNL     1      -6.975  11.476  -5.727  1.00  0.00    -0.207 F 
ENDBRANCH   1   7
BRANCH   4  15
ATOM     15  C   UNL     1      -2.776   3.860  -4.906  1.00  0.00     0.339 C 
ATOM     16  O   UNL     1      -3.015   2.660  -5.065  1.00  0.00    -0.246 OA
BRANCH  15  17
ATOM     17  O   UNL     1      -1.778   4.497  -5.576  1.00  0.00    -0.478 OA
ATOM     18  H   UNL     1      -1.011   3.908  -5.735  1.00  0.00     0.297 HD
ENDBRANCH  15  17
ENDBRANCH   4  15
BRANCH   5  19
ATOM     19  O   UNL     1      -3.103   3.306  -2.137  1.00  0.00    -0.507 OA
ATOM     20  H   UNL     1      -2.890   3.454  -1.199  1.00  0.00     0.293 HD
ENDBRANCH   5  19
TORSDOF 4
ENDMDL
MODEL 4
REMARK VINA RESULT:    -6.958      1.125      1.608
REMARK INTER + INTRA:          -8.757
REMARK INTER:                  -8.172
REMARK INTRA:                  -0.585
REMARK UNBOUND:                -0.579
REMARK SMILES O=C(O)c1cc(-c2ccc(F)cc2F)ccc1O
REMARK SMILES IDX 6 1 5 2 15 3 4 4 17 5 16 6 7 7 13 8 12 9 8 10 10 11 9 12
REMARK SMILES IDX 14 13 11 14 2 15 1 16 3 17 18 19
REMARK H PARENT 3 18 18 20
ROOT
ATOM      1  C   UNL     1      -4.749   6.770  -3.729  1.00  0.00    -0.014 A 
ATOM      2  C   UNL     1      -4.905   6.514  -2.368  1.00  0.00     0.028 A 
ATOM      3  C   UNL     1      -4.069   5.858  -4.537  1.00  0.00     0.013 A 
ATOM      4  C   UNL     1      -4.383   5.345  -1.813  1.00  0.00     0.102 A 
ATOM      5  C   UNL     1      -3.704   4.433  -2.620  1.00  0.00     0.130 A 
ATOM      6  C   UNL     1      -3.547   4.690  -3.983  1.00  0.00     0.048 A 
ENDROOT
BRANCH   1   7
ATOM      7  C   UNL     1      -5.289   7.983  -4.305  1.00  0.00     0.018 A 
ATOM      8  C   UNL     1      -4.506   8.764  -5.156  1.00  0.00     0.133 A 
ATOM      9  C   UNL     1      -5.031   9.932  -5.709  1.00  0.00     0.079 A 
ATOM     10  C   UNL     1      -6.596   8.370  -4.008  1.00  0.00     0.015 A 
ATOM     11  C   UNL     1      -6.337  10.319  -5.411  1.00  0.00     0.126 A 
ATOM     12  C   UNL     1      -7.120   9.537  -4.562  1.00  0.00     0.040 A 
ATOM     13  F   UNL     1      -3.247   8.408  -5.449  1.00  0.00    -0.206 F 
ATOM     14  F   UNL     1      -6.842  11.440  -5.942  1.00  0.00    -0.207 F 
ENDBRANCH   1   7
BRANCH   4  15
ATOM     15  C   UNL     1      -4.558   5.096  -0.388  1.00  0.00     0.339 C 
ATOM     16  O   UNL     1      -3.649   4.855   0.411  1.00  0.00    -0.246 OA
BRANCH  15  17
ATOM     17  O   UNL     1      -5.863   5.157  -0.008  1.00  0.00    -0.478 OA
ATOM     18  H   UNL     1      -6.429   4.571  -0.552  1.00  0.00     0.297 HD
ENDBRANCH  15  17
ENDBRANCH   4  15
BRANCH   5  19
ATOM     19  O   UNL     1      -3.186   3.285  -2.098  1.00  0.00    -0.507 OA
ATOM     20  H   UNL     1      -2.289   3.463  -1.768  1.00  0.00     0.293 HD
ENDBRANCH   5  19
TORSDOF 4
ENDMDL
MODEL 5
REMARK VINA RESULT:    -5.424      1.126      1.401
REMARK INTER + INTRA:          -6.955
REMARK INTER:                  -6.293
REMARK INTRA:                  -0.662
REMARK UNBOUND:                -0.579
REMARK SMILES O=C(O)c1cc(-c2ccc(F)cc2F)ccc1O
REMARK SMILES IDX 6 1 5 2 15 3 4 4 17 5 16 6 7 7 13 8 12 9 8 10 10 11 9 12
REMARK SMILES IDX 14 13 11 14 2 15 1 16 3 17 18 19
REMARK H PARENT 3 18 18 20
ROOT
ATOM      1  C   UNL     1      -4.809   7.284  -3.993  1.00  0.00    -0.014 A 
ATOM      2  C   UNL     1      -5.111   6.910  -2.684  1.00  0.00     0.028 A 
ATOM      3  C   UNL     1      -3.916   6.524  -4.747  1.00  0.00     0.013 A 
ATOM      4  C   UNL     1      -4.520   5.775  -2.129  1.00  0.00     0.102 A 
ATOM      5  C   UNL     1      -3.627   5.014  -2.883  1.00  0.00     0.130 A 
ATOM      6  C   UNL     1      -3.325   5.389  -4.193  1.00  0.00     0.048 A 
ENDROOT
BRANCH   1   7
ATOM      7  C   UNL     1      -5.421   8.463  -4.569  1.00  0.00     0.018 A 
ATOM      8  C   UNL     1      -5.518   9.637  -3.822  1.00  0.00     0.133 A 
ATOM      9  C   UNL     1      -6.109  10.771  -4.381  1.00  0.00     0.079 A 
ATOM     10  C   UNL     1      -5.912   8.422  -5.873  1.00  0.00     0.015 A 
ATOM     11  C   UNL     1      -6.601  10.730  -5.685  1.00  0.00     0.126 A 
ATOM     12  C   UNL     1      -6.501   9.556  -6.431  1.00  0.00     0.040 A 
ATOM     13  F   UNL     1      -5.053   9.692  -2.566  1.00  0.00    -0.206 F 
ATOM     14  F   UNL     1      -7.168  11.818  -6.223  1.00  0.00    -0.207 F 
ENDBRANCH   1   7
BRANCH   4  15
ATOM     15  C   UNL     1      -4.849   5.400  -0.760  1.00  0.00     0.339 C 
ATOM     16  O   UNL     1      -5.977   5.434  -0.263  1.00  0.00    -0.246 OA
BRANCH  15  17
ATOM     17  O   UNL     1      -3.757   4.994  -0.057  1.00  0.00    -0.478 OA
ATOM     18  H   UNL     1      -3.130   4.490  -0.617  1.00  0.00     0.297 HD
ENDBRANCH  15  17
ENDBRANCH   4  15
BRANCH   5  19
ATOM     19  O   UNL     1      -3.039   3.901  -2.360  1.00  0.00    -0.507 OA
ATOM     20  H   UNL     1      -3.484   3.111  -2.714  1.00  0.00     0.293 HD
ENDBRANCH   5  19
TORSDOF 4
ENDMDL
MODEL 6
REMARK VINA RESULT:    -5.350      1.784      3.062
REMARK INTER + INTRA:          -6.867
REMARK INTER:                  -6.332
REMARK INTRA:                  -0.535
REMARK UNBOUND:                -0.579
REMARK SMILES O=C(O)c1cc(-c2ccc(F)cc2F)ccc1O
REMARK SMILES IDX 6 1 5 2 15 3 4 4 17 5 16 6 7 7 13 8 12 9 8 10 10 11 9 12
REMARK SMILES IDX 14 13 11 14 2 15 1 16 3 17 18 19
REMARK H PARENT 3 18 18 20
ROOT
ATOM      1  C   UNL     1      -4.835   7.198  -3.895  1.00  0.00    -0.014 A 
ATOM      2  C   UNL     1      -4.127   6.377  -4.771  1.00  0.00     0.028 A 
ATOM      3  C   UNL     1      -4.988   6.825  -2.560  1.00  0.00     0.013 A 
ATOM      4  C   UNL     1      -3.572   5.181  -4.313  1.00  0.00     0.102 A 
ATOM      5  C   UNL     1      -3.726   4.808  -2.978  1.00  0.00     0.130 A 
ATOM      6  C   UNL     1      -4.434   5.631  -2.101  1.00  0.00     0.048 A 
ENDROOT
BRANCH   1   7
ATOM      7  C   UNL     1      -5.411   8.438  -4.370  1.00  0.00     0.018 A 
ATOM      8  C   UNL     1      -5.982   8.503  -5.641  1.00  0.00     0.133 A 
ATOM      9  C   UNL     1      -6.536   9.700  -6.095  1.00  0.00     0.079 A 
ATOM     10  C   UNL     1      -5.397   9.568  -3.553  1.00  0.00     0.015 A 
ATOM     11  C   UNL     1      -6.521  10.830  -5.279  1.00  0.00     0.126 A 
ATOM     12  C   UNL     1      -5.952  10.763  -4.007  1.00  0.00     0.040 A 
ATOM     13  F   UNL     1      -6.001   7.426  -6.440  1.00  0.00    -0.206 F 
ATOM     14  F   UNL     1      -7.054  11.979  -5.714  1.00  0.00    -0.207 F 
ENDBRANCH   1   7
BRANCH   4  15
ATOM     15  C   UNL     1      -2.836   4.337  -5.244  1.00  0.00     0.339 C 
ATOM     16  O   UNL     1      -2.885   3.105  -5.282  1.00  0.00    -0.246 OA
BRANCH  15  17
ATOM     17  O   UNL     1      -2.064   5.060  -6.100  1.00  0.00    -0.478 OA
ATOM     18  H   UNL     1      -2.534   5.258  -6.937  1.00  0.00     0.297 HD
ENDBRANCH  15  17
ENDBRANCH   4  15
BRANCH   5  19
ATOM     19  O   UNL     1      -3.191   3.645  -2.510  1.00  0.00    -0.507 OA
ATOM     20  H   UNL     1      -2.223   3.684  -2.594  1.00  0.00     0.293 HD
ENDBRANCH   5  19
TORSDOF 4
ENDMDL
MODEL 7
REMARK VINA RESULT:    -5.323      4.605      6.934
REMARK INTER + INTRA:          -6.836
REMARK INTER:                  -5.759
REMARK INTRA:                  -1.078
REMARK UNBOUND:                -0.579
REMARK SMILES O=C(O)c1cc(-c2ccc(F)cc2F)ccc1O
REMARK SMILES IDX 6 1 5 2 15 3 4 4 17 5 16 6 7 7 13 8 12 9 8 10 10 11 9 12
REMARK SMILES IDX 14 13 11 14 2 15 1 16 3 17 18 19
REMARK H PARENT 3 18 18 20
ROOT
ATOM      1  C   UNL     1      -5.644   8.994  -4.879  1.00  0.00    -0.014 A 
ATOM      2  C   UNL     1      -6.200   9.089  -6.154  1.00  0.00     0.028 A 
ATOM      3  C   UNL     1      -5.673  10.094  -4.021  1.00  0.00     0.013 A 
ATOM      4  C   UNL     1      -6.786  10.284  -6.572  1.00  0.00     0.102 A 
ATOM      5  C   UNL     1      -6.815  11.384  -5.715  1.00  0.00     0.130 A 
ATOM      6  C   UNL     1      -6.258  11.289  -4.439  1.00  0.00     0.048 A 
ENDROOT
BRANCH   1   7
ATOM      7  C   UNL     1      -5.035   7.755  -4.444  1.00  0.00     0.018 A 
ATOM      8  C   UNL     1      -3.701   7.485  -4.751  1.00  0.00     0.133 A 
ATOM      9  C   UNL     1      -3.118   6.289  -4.331  1.00  0.00     0.079 A 
ATOM     10  C   UNL     1      -5.785   6.831  -3.717  1.00  0.00     0.015 A 
ATOM     11  C   UNL     1      -3.868   5.365  -3.604  1.00  0.00     0.126 A 
ATOM     12  C   UNL     1      -5.201   5.636  -3.297  1.00  0.00     0.040 A 
ATOM     13  F   UNL     1      -2.967   8.361  -5.452  1.00  0.00    -0.206 F 
ATOM     14  F   UNL     1      -3.309   4.217  -3.200  1.00  0.00    -0.207 F 
ENDBRANCH   1   7
BRANCH   4  15
ATOM     15  C   UNL     1      -7.362  10.363  -7.908  1.00  0.00     0.339 C 
ATOM     16  O   UNL     1      -8.099  11.264  -8.315  1.00  0.00    -0.246 OA
BRANCH  15  17
ATOM     17  O   UNL     1      -6.996   9.313  -8.692  1.00  0.00    -0.478 OA
ATOM     18  H   UNL     1      -7.417   8.477  -8.402  1.00  0.00     0.297 HD
ENDBRANCH  15  17
ENDBRANCH   4  15
BRANCH   5  19
ATOM     19  O   UNL     1      -7.382  12.560  -6.104  1.00  0.00    -0.507 OA
ATOM     20  H   UNL     1      -6.691  13.143  -6.463  1.00  0.00     0.293 HD
ENDBRANCH   5  19
TORSDOF 4
ENDMDL
MODEL 8
REMARK VINA RESULT:    -5.280      4.229      6.493
REMARK INTER + INTRA:          -6.786
REMARK INTER:                  -5.721
REMARK INTRA:                  -1.065
REMARK UNBOUND:                -0.579
REMARK SMILES O=C(O)c1cc(-c2ccc(F)cc2F)ccc1O
REMARK SMILES IDX 6 1 5 2 15 3 4 4 17 5 16 6 7 7 13 8 12 9 8 10 10 11 9 12
REMARK SMILES IDX 14 13 11 14 2 15 1 16 3 17 18 19
REMARK H PARENT 3 18 18 20
ROOT
ATOM      1  C   UNL     1      -5.754   9.031  -4.773  1.00  0.00    -0.014 A 
ATOM      2  C   UNL     1      -5.780  10.209  -4.027  1.00  0.00     0.028 A 
ATOM      3  C   UNL     1      -6.280   9.012  -6.065  1.00  0.00     0.013 A 
ATOM      4  C   UNL     1      -6.333  11.368  -4.572  1.00  0.00     0.102 A 
ATOM      5  C   UNL     1      -6.859  11.349  -5.863  1.00  0.00     0.130 A 
ATOM      6  C   UNL     1      -6.833  10.170  -6.610  1.00  0.00     0.048 A 
ENDROOT
BRANCH   1   7
ATOM      7  C   UNL     1      -5.181   7.828  -4.208  1.00  0.00     0.018 A 
ATOM      8  C   UNL     1      -3.867   7.469  -4.510  1.00  0.00     0.133 A 
ATOM      9  C   UNL     1      -3.320   6.308  -3.963  1.00  0.00     0.079 A 
ATOM     10  C   UNL     1      -5.946   7.028  -3.359  1.00  0.00     0.015 A 
ATOM     11  C   UNL     1      -4.084   5.508  -3.115  1.00  0.00     0.126 A 
ATOM     12  C   UNL     1      -5.398   5.868  -2.813  1.00  0.00     0.040 A 
ATOM     13  F   UNL     1      -3.120   8.225  -5.326  1.00  0.00    -0.206 F 
ATOM     14  F   UNL     1      -3.559   4.393  -2.590  1.00  0.00    -0.207 F 
ENDBRANCH   1   7
BRANCH   4  15
ATOM     15  C   UNL     1      -6.351  12.588  -3.776  1.00  0.00     0.339 C 
ATOM     16  O   UNL     1      -6.566  13.721  -4.212  1.00  0.00    -0.246 OA
BRANCH  15  17
ATOM     17  O   UNL     1      -6.101  12.351  -2.459  1.00  0.00    -0.478 OA
ATOM     18  H   UNL     1      -5.447  12.983  -2.093  1.00  0.00     0.297 HD
ENDBRANCH  15  17
ENDBRANCH   4  15
BRANCH   5  19
ATOM     19  O   UNL     1      -7.404  12.470  -6.414  1.00  0.00    -0.507 OA
ATOM     20  H   UNL     1      -7.134  13.244  -5.890  1.00  0.00     0.293 HD
ENDBRANCH   5  19
TORSDOF 4
ENDMDL
MODEL 9
REMARK VINA RESULT:    -4.135      5.893      8.301
REMARK INTER + INTRA:          -5.439
REMARK INTER:                  -4.835
REMARK INTRA:                  -0.604
REMARK UNBOUND:                -0.579
REMARK SMILES O=C(O)c1cc(-c2ccc(F)cc2F)ccc1O
REMARK SMILES IDX 6 1 5 2 15 3 4 4 17 5 16 6 7 7 13 8 12 9 8 10 10 11 9 12
REMARK SMILES IDX 14 13 11 14 2 15 1 16 3 17 18 19
REMARK H PARENT 3 18 18 20
ROOT
ATOM      1  C   UNL     1      -6.353  12.706  -4.044  1.00  0.00    -0.014 A 
ATOM      2  C   UNL     1      -7.475  13.426  -4.451  1.00  0.00     0.028 A 
ATOM      3  C   UNL     1      -5.366  13.327  -3.279  1.00  0.00     0.013 A 
ATOM      4  C   UNL     1      -7.611  14.768  -4.094  1.00  0.00     0.102 A 
ATOM      5  C   UNL     1      -6.623  15.389  -3.329  1.00  0.00     0.130 A 
ATOM      6  C   UNL     1      -5.500  14.668  -2.921  1.00  0.00     0.048 A 
ENDROOT
BRANCH   1   7
ATOM      7  C   UNL     1      -6.212  11.314  -4.415  1.00  0.00     0.018 A 
ATOM      8  C   UNL     1      -6.604  10.885  -5.683  1.00  0.00     0.133 A 
ATOM      9  C   UNL     1      -6.466   9.542  -6.037  1.00  0.00     0.079 A 
ATOM     10  C   UNL     1      -5.680  10.403  -3.503  1.00  0.00     0.015 A 
ATOM     11  C   UNL     1      -5.936   8.631  -5.125  1.00  0.00     0.126 A 
ATOM     12  C   UNL     1      -5.542   9.062  -3.857  1.00  0.00     0.040 A 
ATOM     13  F   UNL     1      -7.119  11.747  -6.571  1.00  0.00    -0.206 F 
ATOM     14  F   UNL     1      -5.803   7.342  -5.463  1.00  0.00    -0.207 F 
ENDBRANCH   1   7
BRANCH   4  15
ATOM     15  C   UNL     1      -8.790  15.503  -4.529  1.00  0.00     0.339 C 
ATOM     16  O   UNL     1      -9.147  16.601  -4.095  1.00  0.00    -0.246 OA
BRANCH  15  17
ATOM     17  O   UNL     1      -9.486  14.843  -5.494  1.00  0.00    -0.478 OA
ATOM     18  H   UNL     1     -10.284  15.338  -5.772  1.00  0.00     0.297 HD
ENDBRANCH  15  17
ENDBRANCH   4  15
BRANCH   5  19
ATOM     19  O   UNL     1      -6.736  16.699  -2.969  1.00  0.00    -0.507 OA
ATOM     20  H   UNL     1      -7.215  17.179  -3.666  1.00  0.00     0.293 HD
ENDBRANCH   5  19
TORSDOF 4
ENDMDL
