MODEL 1
REMARK VINA RESULT:    -6.854      0.000      0.000
REMARK INTER + INTRA:          -8.706
REMARK INTER:                  -8.056
REMARK INTRA:                  -0.650
REMARK UNBOUND:                -0.650
REMARK SMILES O=C(O)c1cc(-c2ccc(F)cc2F)ccc1O
REMARK SMILES IDX 6 1 5 2 15 3 4 4 17 5 16 6 7 7 13 8 12 9 8 10 10 11 9 12
REMARK SMILES IDX 14 13 11 14 2 15 1 16 3 17 18 19
REMARK H PARENT 3 18 18 20
ROOT
ATOM      1  C   UNL     1       7.598   2.450   2.193  1.00  0.00    -0.014 A 
ATOM      2  C   UNL     1       7.061   1.163   2.171  1.00  0.00     0.028 A 
ATOM      3  C   UNL     1       6.814   3.539   1.812  1.00  0.00     0.013 A 
ATOM      4  C   UNL     1       5.740   0.965   1.768  1.00  0.00     0.102 A 
ATOM      5  C   UNL     1       4.956   2.054   1.387  1.00  0.00     0.130 A 
ATOM      6  C   UNL     1       5.494   3.342   1.409  1.00  0.00     0.048 A 
ENDROOT
BRANCH   1   7
ATOM      7  C   UNL     1       8.968   2.656   2.610  1.00  0.00     0.018 A 
ATOM      8  C   UNL     1       9.447   2.045   3.769  1.00  0.00     0.133 A 
ATOM      9  C   UNL     1      10.769   2.247   4.167  1.00  0.00     0.079 A 
ATOM     10  C   UNL     1       9.811   3.466   1.849  1.00  0.00     0.015 A 
ATOM     11  C   UNL     1      11.611   3.058   3.407  1.00  0.00     0.126 A 
ATOM     12  C   UNL     1      11.132   3.667   2.247  1.00  0.00     0.040 A 
ATOM     13  F   UNL     1       8.650   1.266   4.513  1.00  0.00    -0.206 F 
ATOM     14  F   UNL     1      12.880   3.251   3.788  1.00  0.00    -0.207 F 
ENDBRANCH   1   7
BRANCH   4  15
ATOM     15  C   UNL     1       5.198  -0.387   1.753  1.00  0.00     0.339 C 
ATOM     16  O   UNL     1       4.532  -0.878   0.838  1.00  0.00    -0.246 OA
BRANCH  15  17
ATOM     17  O   UNL     1       5.507  -1.082   2.881  1.00  0.00    -0.478 OA
ATOM     18  H   UNL     1       6.457  -1.321   2.914  1.00  0.00     0.297 HD
ENDBRANCH  15  17
ENDBRANCH   4  15
BRANCH   5  19
ATOM     19  O   UNL     1       3.664   1.882   0.991  1.00  0.00    -0.507 OA
ATOM     20  H   UNL     1       3.644   1.723   0.032  1.00  0.00     0.293 HD
ENDBRANCH   5  19
TORSDOF 4
ENDMDL
MODEL 2
REMARK VINA RESULT:    -6.849      1.695      3.185
REMARK INTER + INTRA:          -8.700
REMARK INTER:                  -8.131
REMARK INTRA:                  -0.570
REMARK UNBOUND:                -0.650
REMARK SMILES O=C(O)c1cc(-c2ccc(F)cc2F)ccc1O
REMARK SMILES IDX 6 1 5 2 15 3 4 4 17 5 16 6 7 7 13 8 12 9 8 10 10 11 9 12
REMARK SMILES IDX 14 13 11 14 2 15 1 16 3 17 18 19
REMARK H PARENT 3 18 18 20
ROOT
ATOM      1  C   UNL     1       7.577   2.501   2.015  1.00  0.00    -0.014 A 
ATOM      2  C   UNL     1       6.838   3.606   1.594  1.00  0.00     0.028 A 
ATOM      3  C   UNL     1       6.998   1.233   2.014  1.00  0.00     0.013 A 
ATOM      4  C   UNL     1       5.518   3.443   1.172  1.00  0.00     0.102 A 
ATOM      5  C   UNL     1       4.938   2.174   1.172  1.00  0.00     0.130 A 
ATOM      6  C   UNL     1       5.678   1.068   1.593  1.00  0.00     0.048 A 
ENDROOT
BRANCH   1   7
ATOM      7  C   UNL     1       8.946   2.670   2.453  1.00  0.00     0.018 A 
ATOM      8  C   UNL     1       9.823   3.469   1.719  1.00  0.00     0.133 A 
ATOM      9  C   UNL     1      11.142   3.629   2.145  1.00  0.00     0.079 A 
ATOM     10  C   UNL     1       9.387   2.033   3.613  1.00  0.00     0.015 A 
ATOM     11  C   UNL     1      11.583   2.991   3.304  1.00  0.00     0.126 A 
ATOM     12  C   UNL     1      10.705   2.194   4.038  1.00  0.00     0.040 A 
ATOM     13  F   UNL     1       9.416   4.086   0.601  1.00  0.00    -0.206 F 
ATOM     14  F   UNL     1      12.849   3.144   3.714  1.00  0.00    -0.207 F 
ENDBRANCH   1   7
BRANCH   4  15
ATOM     15  C   UNL     1       4.762   4.609   0.736  1.00  0.00     0.339 C 
ATOM     16  O   UNL     1       3.661   4.951   1.174  1.00  0.00    -0.246 OA
BRANCH  15  17
ATOM     17  O   UNL     1       5.409   5.312  -0.233  1.00  0.00    -0.478 OA
ATOM     18  H   UNL     1       6.179   4.820  -0.588  1.00  0.00     0.297 HD
ENDBRANCH  15  17
ENDBRANCH   4  15
BRANCH   5  19
ATOM     19  O   UNL     1       3.650   1.993   0.764  1.00  0.00    -0.507 OA
ATOM     20  H   UNL     1       3.073   2.602   1.255  1.00  0.00     0.293 HD
ENDBRANCH   5  19
TORSDOF 4
ENDMDL
MODEL 3
REMARK VINA RESULT:    -6.841      1.279      2.737
REMARK INTER + INTRA:          -8.691
REMARK INTER:                  -8.131
REMARK INTRA:                  -0.560
REMARK UNBOUND:                -0.650
REMARK SMILES O=C(O)c1cc(-c2ccc(F)cc2F)ccc1O
REMARK SMILES IDX 6 1 5 2 15 3 4 4 17 5 16 6 7 7 13 8 12 9 8 10 10 11 9 12
REMARK SMILES IDX 14 13 11 14 2 15 1 16 3 17 18 19
REMARK H PARENT 3 18 18 20
ROOT
ATOM      1  C   UNL     1       7.511   2.449   2.096  1.00  0.00    -0.014 A 
ATOM      2  C   UNL     1       6.798   3.562   1.652  1.00  0.00     0.028 A 
ATOM      3  C   UNL     1       6.910   1.190   2.094  1.00  0.00     0.013 A 
ATOM      4  C   UNL     1       5.484   3.417   1.205  1.00  0.00     0.102 A 
ATOM      5  C   UNL     1       4.884   2.158   1.203  1.00  0.00     0.130 A 
ATOM      6  C   UNL     1       5.597   1.044   1.648  1.00  0.00     0.048 A 
ENDROOT
BRANCH   1   7
ATOM      7  C   UNL     1       8.873   2.598   2.560  1.00  0.00     0.018 A 
ATOM      8  C   UNL     1       9.285   1.971   3.736  1.00  0.00     0.133 A 
ATOM      9  C   UNL     1      10.600   2.118   4.180  1.00  0.00     0.079 A 
ATOM     10  C   UNL     1       9.775   3.370   1.828  1.00  0.00     0.015 A 
ATOM     11  C   UNL     1      11.501   2.891   3.449  1.00  0.00     0.126 A 
ATOM     12  C   UNL     1      11.088   3.516   2.272  1.00  0.00     0.040 A 
ATOM     13  F   UNL     1       8.430   1.228   4.453  1.00  0.00    -0.206 F 
ATOM     14  F   UNL     1      12.763   3.033   3.875  1.00  0.00    -0.207 F 
ENDBRANCH   1   7
BRANCH   4  15
ATOM     15  C   UNL     1       4.757   4.592   0.745  1.00  0.00     0.339 C 
ATOM     16  O   UNL     1       3.660   4.964   1.169  1.00  0.00    -0.246 OA
BRANCH  15  17
ATOM     17  O   UNL     1       5.425   5.266  -0.230  1.00  0.00    -0.478 OA
ATOM     18  H   UNL     1       5.484   6.225  -0.035  1.00  0.00     0.297 HD
ENDBRANCH  15  17
ENDBRANCH   4  15
BRANCH   5  19
ATOM     19  O   UNL     1       3.601   1.995   0.771  1.00  0.00    -0.507 OA
ATOM     20  H   UNL     1       3.541   1.167   0.263  1.00  0.00     0.293 HD
ENDBRANCH   5  19
TORSDOF 4
ENDMDL
MODEL 4
REMARK VINA RESULT:    -6.834      1.178      1.645
REMARK INTER + INTRA:          -8.682
REMARK INTER:                  -8.122
REMARK INTRA:                  -0.560
REMARK UNBOUND:                -0.650
REMARK SMILES O=C(O)c1cc(-c2ccc(F)cc2F)ccc1O
REMARK SMILES IDX 6 1 5 2 15 3 4 4 17 5 16 6 7 7 13 8 12 9 8 10 10 11 9 12
REMARK SMILES IDX 14 13 11 14 2 15 1 16 3 17 18 19
REMARK H PARENT 3 18 18 20
ROOT
ATOM      1  C   UNL     1       7.528   2.555   2.028  1.00  0.00    -0.014 A 
ATOM      2  C   UNL     1       6.963   1.281   2.067  1.00  0.00     0.028 A 
ATOM      3  C   UNL     1       6.765   3.643   1.602  1.00  0.00     0.013 A 
ATOM      4  C   UNL     1       5.635   1.094   1.681  1.00  0.00     0.102 A 
ATOM      5  C   UNL     1       4.873   2.181   1.255  1.00  0.00     0.130 A 
ATOM      6  C   UNL     1       5.438   3.457   1.216  1.00  0.00     0.048 A 
ENDROOT
BRANCH   1   7
ATOM      7  C   UNL     1       8.905   2.750   2.427  1.00  0.00     0.018 A 
ATOM      8  C   UNL     1       9.755   3.537   1.649  1.00  0.00     0.133 A 
ATOM      9  C   UNL     1      11.082   3.722   2.038  1.00  0.00     0.079 A 
ATOM     10  C   UNL     1       9.381   2.149   3.592  1.00  0.00     0.015 A 
ATOM     11  C   UNL     1      11.559   3.121   3.202  1.00  0.00     0.126 A 
ATOM     12  C   UNL     1      10.708   2.335   3.979  1.00  0.00     0.040 A 
ATOM     13  F   UNL     1       9.313   4.119   0.525  1.00  0.00    -0.206 F 
ATOM     14  F   UNL     1      12.832   3.298   3.576  1.00  0.00    -0.207 F 
ENDBRANCH   1   7
BRANCH   4  15
ATOM     15  C   UNL     1       5.064  -0.245   1.730  1.00  0.00     0.339 C 
ATOM     16  O   UNL     1       4.517  -0.823   0.787  1.00  0.00    -0.246 OA
BRANCH  15  17
ATOM     17  O   UNL     1       5.195  -0.820   2.956  1.00  0.00    -0.478 OA
ATOM     18  H   UNL     1       6.102  -0.714   3.313  1.00  0.00     0.297 HD
ENDBRANCH  15  17
ENDBRANCH   4  15
BRANCH   5  19
ATOM     19  O   UNL     1       3.574   2.020   0.874  1.00  0.00    -0.507 OA
ATOM     20  H   UNL     1       3.247   1.169   1.215  1.00  0.00     0.293 HD
ENDBRANCH   5  19
TORSDOF 4
ENDMDL
MODEL 5
REMARK VINA RESULT:    -5.456      4.606      6.929
REMARK INTER + INTRA:          -7.063
REMARK INTER:                  -5.981
REMARK INTRA:                  -1.082
REMARK UNBOUND:                -0.650
REMARK SMILES O=C(O)c1cc(-c2ccc(F)cc2F)ccc1O
REMARK SMILES IDX 6 1 5 2 15 3 4 4 17 5 16 6 7 7 13 8 12 9 8 10 10 11 9 12
REMARK SMILES IDX 14 13 11 14 2 15 1 16 3 17 18 19
REMARK H PARENT 3 18 18 20
ROOT
ATOM      1  C   UNL     1      10.131   2.951   2.726  1.00  0.00    -0.014 A 
ATOM      2  C   UNL     1      10.640   4.027   3.452  1.00  0.00     0.028 A 
ATOM      3  C   UNL     1      10.955   1.870   2.411  1.00  0.00     0.013 A 
ATOM      4  C   UNL     1      11.973   4.023   3.863  1.00  0.00     0.102 A 
ATOM      5  C   UNL     1      12.797   2.943   3.548  1.00  0.00     0.130 A 
ATOM      6  C   UNL     1      12.288   1.866   2.821  1.00  0.00     0.048 A 
ENDROOT
BRANCH   1   7
ATOM      7  C   UNL     1       8.749   2.954   2.299  1.00  0.00     0.018 A 
ATOM      8  C   UNL     1       8.389   3.563   1.096  1.00  0.00     0.133 A 
ATOM      9  C   UNL     1       7.055   3.564   0.687  1.00  0.00     0.079 A 
ATOM     10  C   UNL     1       7.775   2.346   3.091  1.00  0.00     0.015 A 
ATOM     11  C   UNL     1       6.082   2.957   1.480  1.00  0.00     0.126 A 
ATOM     12  C   UNL     1       6.443   2.348   2.682  1.00  0.00     0.040 A 
ATOM     13  F   UNL     1       9.312   4.154   0.323  1.00  0.00    -0.206 F 
ATOM     14  F   UNL     1       4.801   2.958   1.089  1.00  0.00    -0.207 F 
ENDBRANCH   1   7
BRANCH   4  15
ATOM     15  C   UNL     1      12.485   5.157   4.621  1.00  0.00     0.339 C 
ATOM     16  O   UNL     1      13.594   5.213   5.160  1.00  0.00    -0.246 OA
BRANCH  15  17
ATOM     17  O   UNL     1      11.596   6.185   4.681  1.00  0.00    -0.478 OA
ATOM     18  H   UNL     1      10.706   5.881   4.956  1.00  0.00     0.297 HD
ENDBRANCH  15  17
ENDBRANCH   4  15
BRANCH   5  19
ATOM     19  O   UNL     1      14.102   2.920   3.940  1.00  0.00    -0.507 OA
ATOM     20  H   UNL     1      14.388   1.995   4.039  1.00  0.00     0.293 HD
ENDBRANCH   5  19
TORSDOF 4
ENDMDL
MODEL 6
REMARK VINA RESULT:    -5.453      4.046      6.316
REMARK INTER + INTRA:          -7.060
REMARK INTER:                  -5.976
REMARK INTRA:                  -1.084
REMARK UNBOUND:                -0.650
REMARK SMILES O=C(O)c1cc(-c2ccc(F)cc2F)ccc1O
REMARK SMILES IDX 6 1 5 2 15 3 4 4 17 5 16 6 7 7 13 8 12 9 8 10 10 11 9 12
REMARK SMILES IDX 14 13 11 14 2 15 1 16 3 17 18 19
REMARK H PARENT 3 18 18 20
ROOT
ATOM      1  C   UNL     1      10.045   2.663   3.012  1.00  0.00    -0.014 A 
ATOM      2  C   UNL     1      11.120   1.803   2.789  1.00  0.00     0.028 A 
ATOM      3  C   UNL     1      10.251   3.888   3.645  1.00  0.00     0.013 A 
ATOM      4  C   UNL     1      12.402   2.169   3.200  1.00  0.00     0.102 A 
ATOM      5  C   UNL     1      12.609   3.395   3.833  1.00  0.00     0.130 A 
ATOM      6  C   UNL     1      11.532   4.255   4.055  1.00  0.00     0.048 A 
ENDROOT
BRANCH   1   7
ATOM      7  C   UNL     1       8.714   2.283   2.588  1.00  0.00     0.018 A 
ATOM      8  C   UNL     1       7.894   1.538   3.437  1.00  0.00     0.133 A 
ATOM      9  C   UNL     1       6.612   1.175   3.024  1.00  0.00     0.079 A 
ATOM     10  C   UNL     1       8.252   2.665   1.329  1.00  0.00     0.015 A 
ATOM     11  C   UNL     1       6.151   1.555   1.764  1.00  0.00     0.126 A 
ATOM     12  C   UNL     1       6.971   2.301   0.917  1.00  0.00     0.040 A 
ATOM     13  F   UNL     1       8.324   1.162   4.649  1.00  0.00    -0.206 F 
ATOM     14  F   UNL     1       4.920   1.207   1.367  1.00  0.00    -0.207 F 
ENDBRANCH   1   7
BRANCH   4  15
ATOM     15  C   UNL     1      13.512   1.258   2.957  1.00  0.00     0.339 C 
ATOM     16  O   UNL     1      14.702   1.514   3.155  1.00  0.00    -0.246 OA
BRANCH  15  17
ATOM     17  O   UNL     1      13.099   0.053   2.477  1.00  0.00    -0.478 OA
ATOM     18  H   UNL     1      12.460   0.154   1.741  1.00  0.00     0.297 HD
ENDBRANCH  15  17
ENDBRANCH   4  15
BRANCH   5  19
ATOM     19  O   UNL     1      13.854   3.771   4.241  1.00  0.00    -0.507 OA
ATOM     20  H   UNL     1      13.875   3.797   5.213  1.00  0.00     0.293 HD
ENDBRANCH   5  19
TORSDOF 4
ENDMDL
MODEL 7
REMARK VINA RESULT:    -5.442      1.686      2.897
REMARK INTER + INTRA:          -7.046
REMARK INTER:                  -6.242
REMARK INTRA:                  -0.805
REMARK UNBOUND:                -0.650
REMARK SMILES O=C(O)c1cc(-c2ccc(F)cc2F)ccc1O
REMARK SMILES IDX 6 1 5 2 15 3 4 4 17 5 16 6 7 7 13 8 12 9 8 10 10 11 9 12
REMARK SMILES IDX 14 13 11 14 2 15 1 16 3 17 18 19
REMARK H PARENT 3 18 18 20
ROOT
ATOM      1  C   UNL     1       8.261   2.665   2.606  1.00  0.00    -0.014 A 
ATOM      2  C   UNL     1       7.544   3.632   1.904  1.00  0.00     0.028 A 
ATOM      3  C   UNL     1       7.646   1.465   2.965  1.00  0.00     0.013 A 
ATOM      4  C   UNL     1       6.212   3.401   1.560  1.00  0.00     0.102 A 
ATOM      5  C   UNL     1       5.597   2.202   1.919  1.00  0.00     0.130 A 
ATOM      6  C   UNL     1       6.315   1.233   2.622  1.00  0.00     0.048 A 
ENDROOT
BRANCH   1   7
ATOM      7  C   UNL     1       9.642   2.905   2.965  1.00  0.00     0.018 A 
ATOM      8  C   UNL     1      10.629   1.986   2.603  1.00  0.00     0.133 A 
ATOM      9  C   UNL     1      11.960   2.221   2.951  1.00  0.00     0.079 A 
ATOM     10  C   UNL     1       9.986   4.057   3.671  1.00  0.00     0.015 A 
ATOM     11  C   UNL     1      12.303   3.373   3.658  1.00  0.00     0.126 A 
ATOM     12  C   UNL     1      11.316   4.291   4.018  1.00  0.00     0.040 A 
ATOM     13  F   UNL     1      10.315   0.873   1.927  1.00  0.00    -0.206 F 
ATOM     14  F   UNL     1      13.580   3.599   3.992  1.00  0.00    -0.207 F 
ENDBRANCH   1   7
BRANCH   4  15
ATOM     15  C   UNL     1       5.480   4.424   0.825  1.00  0.00     0.339 C 
ATOM     16  O   UNL     1       5.947   5.130  -0.072  1.00  0.00    -0.246 OA
BRANCH  15  17
ATOM     17  O   UNL     1       4.187   4.532   1.235  1.00  0.00    -0.478 OA
ATOM     18  H   UNL     1       3.739   5.305   0.831  1.00  0.00     0.297 HD
ENDBRANCH  15  17
ENDBRANCH   4  15
BRANCH   5  19
ATOM     19  O   UNL     1       4.297   1.956   1.592  1.00  0.00    -0.507 OA
ATOM     20  H   UNL     1       4.269   1.308   0.867  1.00  0.00     0.293 HD
ENDBRANCH   5  19
TORSDOF 4
ENDMDL
MODEL 8
REMARK VINA RESULT:    -5.409      4.196      6.441
REMARK INTER + INTRA:          -7.008
REMARK INTER:                  -5.932
REMARK INTRA:                  -1.076
REMARK UNBOUND:                -0.650
REMARK SMILES O=C(O)c1cc(-c2ccc(F)cc2F)ccc1O
REMARK SMILES IDX 6 1 5 2 15 3 4 4 17 5 16 6 7 7 13 8 12 9 8 10 10 11 9 12
REMARK SMILES IDX 14 13 11 14 2 15 1 16 3 17 18 19
REMARK H PARENT 3 18 18 20
ROOT
ATOM      1  C   UNL     1      10.189   2.819   2.811  1.00  0.00    -0.014 A 
ATOM      2  C   UNL     1      11.070   1.787   2.486  1.00  0.00     0.028 A 
ATOM      3  C   UNL     1      10.647   3.929   3.520  1.00  0.00     0.013 A 
ATOM      4  C   UNL     1      12.408   1.865   2.871  1.00  0.00     0.102 A 
ATOM      5  C   UNL     1      12.866   2.976   3.581  1.00  0.00     0.130 A 
ATOM      6  C   UNL     1      11.985   4.008   3.905  1.00  0.00     0.048 A 
ENDROOT
BRANCH   1   7
ATOM      7  C   UNL     1       8.800   2.738   2.413  1.00  0.00     0.018 A 
ATOM      8  C   UNL     1       8.370   3.361   1.241  1.00  0.00     0.133 A 
ATOM      9  C   UNL     1       7.029   3.280   0.862  1.00  0.00     0.079 A 
ATOM     10  C   UNL     1       7.892   2.034   3.203  1.00  0.00     0.015 A 
ATOM     11  C   UNL     1       6.121   2.577   1.652  1.00  0.00     0.126 A 
ATOM     12  C   UNL     1       6.553   1.954   2.823  1.00  0.00     0.040 A 
ATOM     13  F   UNL     1       9.229   4.044   0.472  1.00  0.00    -0.206 F 
ATOM     14  F   UNL     1       4.835   2.500   1.288  1.00  0.00    -0.207 F 
ENDBRANCH   1   7
BRANCH   4  15
ATOM     15  C   UNL     1      13.312   0.778   2.522  1.00  0.00     0.339 C 
ATOM     16  O   UNL     1      13.337   0.191   1.438  1.00  0.00    -0.246 OA
BRANCH  15  17
ATOM     17  O   UNL     1      14.157   0.460   3.540  1.00  0.00    -0.478 OA
ATOM     18  H   UNL     1      14.932   1.059   3.572  1.00  0.00     0.297 HD
ENDBRANCH  15  17
ENDBRANCH   4  15
BRANCH   5  19
ATOM     19  O   UNL     1      14.170   3.072   3.966  1.00  0.00    -0.507 OA
ATOM     20  H   UNL     1      14.618   2.228   3.781  1.00  0.00     0.293 HD
ENDBRANCH   5  19
TORSDOF 4
ENDMDL
MODEL 9
REMARK VINA RESULT:    -5.108      8.875     11.352
REMARK INTER + INTRA:          -6.654
REMARK INTER:                  -5.590
REMARK INTRA:                  -1.064
REMARK UNBOUND:                -0.650
REMARK SMILES O=C(O)c1cc(-c2ccc(F)cc2F)ccc1O
REMARK SMILES IDX 6 1 5 2 15 3 4 4 17 5 16 6 7 7 13 8 12 9 8 10 10 11 9 12
REMARK SMILES IDX 14 13 11 14 2 15 1 16 3 17 18 19
REMARK H PARENT 3 18 18 20
ROOT
ATOM      1  C   UNL     1      13.596   7.112   8.161  1.00  0.00    -0.014 A 
ATOM      2  C   UNL     1      13.720   8.493   8.307  1.00  0.00     0.028 A 
ATOM      3  C   UNL     1      13.901   6.267   9.229  1.00  0.00     0.013 A 
ATOM      4  C   UNL     1      14.149   9.031   9.520  1.00  0.00     0.102 A 
ATOM      5  C   UNL     1      14.453   8.187  10.588  1.00  0.00     0.130 A 
ATOM      6  C   UNL     1      14.329   6.804  10.442  1.00  0.00     0.048 A 
ENDROOT
BRANCH   1   7
ATOM      7  C   UNL     1      13.153   6.553   6.902  1.00  0.00     0.018 A 
ATOM      8  C   UNL     1      14.069   6.332   5.872  1.00  0.00     0.133 A 
ATOM      9  C   UNL     1      13.637   5.793   4.660  1.00  0.00     0.079 A 
ATOM     10  C   UNL     1      11.808   6.234   6.719  1.00  0.00     0.015 A 
ATOM     11  C   UNL     1      12.292   5.475   4.477  1.00  0.00     0.126 A 
ATOM     12  C   UNL     1      11.377   5.695   5.507  1.00  0.00     0.040 A 
ATOM     13  F   UNL     1      15.365   6.635   6.031  1.00  0.00    -0.206 F 
ATOM     14  F   UNL     1      11.877   4.958   3.314  1.00  0.00    -0.207 F 
ENDBRANCH   1   7
BRANCH   4  15
ATOM     15  C   UNL     1      14.272  10.476   9.652  1.00  0.00     0.339 C 
ATOM     16  O   UNL     1      15.019  11.060  10.441  1.00  0.00    -0.246 OA
BRANCH  15  17
ATOM     17  O   UNL     1      13.456  11.146   8.793  1.00  0.00    -0.478 OA
ATOM     18  H   UNL     1      13.432  10.724   7.909  1.00  0.00     0.297 HD
ENDBRANCH  15  17
ENDBRANCH   4  15
BRANCH   5  19
ATOM     19  O   UNL     1      14.873   8.692  11.783  1.00  0.00    -0.507 OA
ATOM     20  H   UNL     1      15.520   8.081  12.176  1.00  0.00     0.293 HD
ENDBRANCH   5  19
TORSDOF 4
ENDMDL
