MODEL 1
REMARK VINA RESULT:    -5.431      0.000      0.000
REMARK INTER + INTRA:          -7.442
REMARK INTER:                  -6.701
REMARK INTRA:                  -0.741
REMARK UNBOUND:                -0.741
REMARK SMILES Cc1ccc(C(=O)c2cc(O)c(O)c([N+](=O)[O-])c2)cc1
REMARK SMILES IDX 8 1 18 2 9 3 14 4 10 5 12 6 6 7 7 8 5 9 4 10 19 11 3 12
REMARK SMILES IDX 20 13 2 14 1 15 15 16 17 17 16 18 11 19 13 21
REMARK H PARENT 11 20 13 22
ROOT
ATOM      1  C   UNL     1       5.364   6.879  -2.801  1.00  0.00     0.033 A 
ATOM      2  C   UNL     1       4.068   7.128  -3.188  1.00  0.00     0.102 A 
ATOM      3  C   UNL     1       5.712   5.819  -1.998  1.00  0.00     0.063 A 
ATOM      4  C   UNL     1       3.063   6.267  -2.748  1.00  0.00     0.315 A 
ATOM      5  C   UNL     1       4.707   4.957  -1.557  1.00  0.00     0.165 A 
ATOM      6  C   UNL     1       3.381   5.182  -1.933  1.00  0.00     0.237 A 
ENDROOT
BRANCH   1   7
ATOM      7  C   UNL     1       6.440   7.801  -3.272  1.00  0.00     0.193 C 
ATOM      8  O   UNL     1       7.536   7.297  -3.560  1.00  0.00    -0.289 OA
BRANCH   7   9
ATOM      9  C   UNL     1       6.239   9.236  -3.397  1.00  0.00     0.023 A 
ATOM     10  C   UNL     1       6.650  10.090  -2.373  1.00  0.00     0.012 A 
ATOM     11  C   UNL     1       5.634   9.759  -4.540  1.00  0.00     0.012 A 
ATOM     12  C   UNL     1       6.457  11.466  -2.493  1.00  0.00     0.004 A 
ATOM     13  C   UNL     1       5.440  11.135  -4.660  1.00  0.00     0.004 A 
ATOM     14  C   UNL     1       5.852  11.989  -3.637  1.00  0.00    -0.051 A 
ATOM     15  C   UNL     1       5.644  13.460  -3.764  1.00  0.00     0.044 C 
ENDBRANCH   7   9
ENDBRANCH   1   7
BRANCH   4  16
ATOM     16  N   UNL     1       1.718   6.512  -3.141  1.00  0.00     0.066 N 
ATOM     17  O   UNL     1       1.491   6.918  -4.306  1.00  0.00    -0.258 OA
ATOM     18  O   UNL     1       0.799   6.314  -2.312  1.00  0.00    -0.258 OA
ENDBRANCH   4  16
BRANCH   5  19
ATOM     19  O   UNL     1       5.033   3.901  -0.761  1.00  0.00    -0.504 OA
ATOM     20  H   UNL     1       4.250   3.616  -0.262  1.00  0.00     0.293 HD
ENDBRANCH   5  19
BRANCH   6  21
ATOM     21  O   UNL     1       2.407   4.332  -1.496  1.00  0.00    -0.500 OA
ATOM     22  H   UNL     1       1.603   4.835  -1.294  1.00  0.00     0.294 HD
ENDBRANCH   6  21
TORSDOF 5
ENDMDL
MODEL 2
REMARK VINA RESULT:    -5.428      2.049      3.575
REMARK INTER + INTRA:          -7.438
REMARK INTER:                  -6.705
REMARK INTRA:                  -0.733
REMARK UNBOUND:                -0.741
REMARK SMILES Cc1ccc(C(=O)c2cc(O)c(O)c([N+](=O)[O-])c2)cc1
REMARK SMILES IDX 8 1 18 2 9 3 14 4 10 5 12 6 6 7 7 8 5 9 4 10 19 11 3 12
REMARK SMILES IDX 20 13 2 14 1 15 15 16 17 17 16 18 11 19 13 21
REMARK H PARENT 11 20 13 22
ROOT
ATOM      1  C   UNL     1       4.019   8.013  -2.274  1.00  0.00     0.033 A 
ATOM      2  C   UNL     1       4.839   7.094  -1.662  1.00  0.00     0.102 A 
ATOM      3  C   UNL     1       2.721   7.733  -2.630  1.00  0.00     0.063 A 
ATOM      4  C   UNL     1       4.332   5.823  -1.390  1.00  0.00     0.315 A 
ATOM      5  C   UNL     1       2.213   6.462  -2.359  1.00  0.00     0.165 A 
ATOM      6  C   UNL     1       3.019   5.507  -1.738  1.00  0.00     0.237 A 
ENDROOT
BRANCH   1   7
ATOM      7  C   UNL     1       4.562   9.374  -2.565  1.00  0.00     0.193 C 
ATOM      8  O   UNL     1       3.790  10.335  -2.434  1.00  0.00    -0.289 OA
BRANCH   7   9
ATOM      9  C   UNL     1       5.937   9.590  -2.986  1.00  0.00     0.023 A 
ATOM     10  C   UNL     1       6.237   9.733  -4.341  1.00  0.00     0.012 A 
ATOM     11  C   UNL     1       6.956   9.656  -2.036  1.00  0.00     0.012 A 
ATOM     12  C   UNL     1       7.556   9.941  -4.745  1.00  0.00     0.004 A 
ATOM     13  C   UNL     1       8.275   9.865  -2.439  1.00  0.00     0.004 A 
ATOM     14  C   UNL     1       8.575  10.007  -3.794  1.00  0.00    -0.051 A 
ATOM     15  C   UNL     1       9.985  10.228  -4.226  1.00  0.00     0.044 C 
ENDBRANCH   7   9
ENDBRANCH   1   7
BRANCH   4  16
ATOM     16  N   UNL     1       5.168   4.863  -0.757  1.00  0.00     0.066 N 
ATOM     17  O   UNL     1       5.931   5.238   0.166  1.00  0.00    -0.258 OA
ATOM     18  O   UNL     1       5.117   3.670  -1.139  1.00  0.00    -0.258 OA
ENDBRANCH   4  16
BRANCH   5  19
ATOM     19  O   UNL     1       0.929   6.168  -2.705  1.00  0.00    -0.504 OA
ATOM     20  H   UNL     1       0.371   6.955  -2.586  1.00  0.00     0.293 HD
ENDBRANCH   5  19
BRANCH   6  21
ATOM     21  O   UNL     1       2.511   4.268  -1.478  1.00  0.00    -0.500 OA
ATOM     22  H   UNL     1       3.237   3.644  -1.322  1.00  0.00     0.294 HD
ENDBRANCH   6  21
TORSDOF 5
ENDMDL
MODEL 3
REMARK VINA RESULT:    -4.544      3.543      4.421
REMARK INTER + INTRA:          -6.347
REMARK INTER:                  -5.372
REMARK INTRA:                  -0.975
REMARK UNBOUND:                -0.741
REMARK SMILES Cc1ccc(C(=O)c2cc(O)c(O)c([N+](=O)[O-])c2)cc1
REMARK SMILES IDX 8 1 18 2 9 3 14 4 10 5 12 6 6 7 7 8 5 9 4 10 19 11 3 12
REMARK SMILES IDX 20 13 2 14 1 15 15 16 17 17 16 18 11 19 13 21
REMARK H PARENT 11 20 13 22
ROOT
ATOM      1  C   UNL     1       6.914   9.785  -2.495  1.00  0.00     0.033 A 
ATOM      2  C   UNL     1       5.997   8.852  -2.920  1.00  0.00     0.102 A 
ATOM      3  C   UNL     1       7.379   9.839  -1.203  1.00  0.00     0.063 A 
ATOM      4  C   UNL     1       5.520   7.919  -2.000  1.00  0.00     0.315 A 
ATOM      5  C   UNL     1       6.902   8.906  -0.282  1.00  0.00     0.165 A 
ATOM      6  C   UNL     1       5.972   7.945  -0.681  1.00  0.00     0.237 A 
ENDROOT
BRANCH   1   7
ATOM      7  C   UNL     1       7.425  10.785  -3.480  1.00  0.00     0.193 C 
ATOM      8  O   UNL     1       6.684  11.741  -3.757  1.00  0.00    -0.289 OA
BRANCH   7   9
ATOM      9  C   UNL     1       8.733  10.667  -4.104  1.00  0.00     0.023 A 
ATOM     10  C   UNL     1       9.614  11.748  -4.087  1.00  0.00     0.012 A 
ATOM     11  C   UNL     1       9.108   9.472  -4.718  1.00  0.00     0.012 A 
ATOM     12  C   UNL     1      10.869  11.634  -4.685  1.00  0.00     0.004 A 
ATOM     13  C   UNL     1      10.363   9.358  -5.316  1.00  0.00     0.004 A 
ATOM     14  C   UNL     1      11.244  10.439  -5.299  1.00  0.00    -0.051 A 
ATOM     15  C   UNL     1      12.585  10.319  -5.939  1.00  0.00     0.044 C 
ENDBRANCH   7   9
ENDBRANCH   1   7
BRANCH   4  16
ATOM     16  N   UNL     1       4.572   6.947  -2.425  1.00  0.00     0.066 N 
ATOM     17  O   UNL     1       3.698   6.558  -1.613  1.00  0.00    -0.258 OA
ATOM     18  O   UNL     1       4.637   6.509  -3.597  1.00  0.00    -0.258 OA
ENDBRANCH   4  16
BRANCH   5  19
ATOM     19  O   UNL     1       7.353   8.944   1.003  1.00  0.00    -0.504 OA
ATOM     20  H   UNL     1       6.673   9.337   1.575  1.00  0.00     0.293 HD
ENDBRANCH   5  19
BRANCH   6  21
ATOM     21  O   UNL     1       5.512   7.038   0.229  1.00  0.00    -0.500 OA
ATOM     22  H   UNL     1       4.990   6.357  -0.224  1.00  0.00     0.294 HD
ENDBRANCH   6  21
TORSDOF 5
ENDMDL
MODEL 4
REMARK VINA RESULT:    -4.526      2.300      3.990
REMARK INTER + INTRA:          -6.325
REMARK INTER:                  -5.346
REMARK INTRA:                  -0.979
REMARK UNBOUND:                -0.741
REMARK SMILES Cc1ccc(C(=O)c2cc(O)c(O)c([N+](=O)[O-])c2)cc1
REMARK SMILES IDX 8 1 18 2 9 3 14 4 10 5 12 6 6 7 7 8 5 9 4 10 19 11 3 12
REMARK SMILES IDX 20 13 2 14 1 15 15 16 17 17 16 18 11 19 13 21
REMARK H PARENT 11 20 13 22
ROOT
ATOM      1  C   UNL     1       5.891   9.944  -4.175  1.00  0.00     0.033 A 
ATOM      2  C   UNL     1       5.547   9.079  -3.162  1.00  0.00     0.102 A 
ATOM      3  C   UNL     1       5.384   9.840  -5.449  1.00  0.00     0.063 A 
ATOM      4  C   UNL     1       4.643   8.053  -3.438  1.00  0.00     0.315 A 
ATOM      5  C   UNL     1       4.481   8.814  -5.726  1.00  0.00     0.165 A 
ATOM      6  C   UNL     1       4.110   7.920  -4.720  1.00  0.00     0.237 A 
ENDROOT
BRANCH   1   7
ATOM      7  C   UNL     1       6.859  11.043  -3.879  1.00  0.00     0.193 C 
ATOM      8  O   UNL     1       8.060  10.740  -3.814  1.00  0.00    -0.289 OA
BRANCH   7   9
ATOM      9  C   UNL     1       6.437  12.419  -3.672  1.00  0.00     0.023 A 
ATOM     10  C   UNL     1       5.446  12.711  -2.734  1.00  0.00     0.012 A 
ATOM     11  C   UNL     1       7.023  13.446  -4.410  1.00  0.00     0.012 A 
ATOM     12  C   UNL     1       5.042  14.031  -2.536  1.00  0.00     0.004 A 
ATOM     13  C   UNL     1       6.619  14.767  -4.212  1.00  0.00     0.004 A 
ATOM     14  C   UNL     1       5.628  15.060  -3.274  1.00  0.00    -0.051 A 
ATOM     15  C   UNL     1       5.195  16.470  -3.063  1.00  0.00     0.044 C 
ENDBRANCH   7   9
ENDBRANCH   1   7
BRANCH   4  16
ATOM     16  N   UNL     1       4.278   7.152  -2.401  1.00  0.00     0.066 N 
ATOM     17  O   UNL     1       4.097   7.602  -1.244  1.00  0.00    -0.258 OA
ATOM     18  O   UNL     1       4.146   5.936  -2.673  1.00  0.00    -0.258 OA
ENDBRANCH   4  16
BRANCH   5  19
ATOM     19  O   UNL     1       3.967   8.696  -6.982  1.00  0.00    -0.504 OA
ATOM     20  H   UNL     1       3.954   7.760  -7.242  1.00  0.00     0.293 HD
ENDBRANCH   5  19
BRANCH   6  21
ATOM     21  O   UNL     1       3.225   6.921  -5.003  1.00  0.00    -0.500 OA
ATOM     22  H   UNL     1       3.702   6.154  -5.357  1.00  0.00     0.294 HD
ENDBRANCH   6  21
TORSDOF 5
ENDMDL
MODEL 5
REMARK VINA RESULT:    -4.504      3.513      7.128
REMARK INTER + INTRA:          -6.298
REMARK INTER:                  -5.314
REMARK INTRA:                  -0.983
REMARK UNBOUND:                -0.741
REMARK SMILES Cc1ccc(C(=O)c2cc(O)c(O)c([N+](=O)[O-])c2)cc1
REMARK SMILES IDX 8 1 18 2 9 3 14 4 10 5 12 6 6 7 7 8 5 9 4 10 19 11 3 12
REMARK SMILES IDX 20 13 2 14 1 15 15 16 17 17 16 18 11 19 13 21
REMARK H PARENT 11 20 13 22
ROOT
ATOM      1  C   UNL     1       6.231  10.059  -4.024  1.00  0.00     0.033 A 
ATOM      2  C   UNL     1       7.564   9.762  -4.191  1.00  0.00     0.102 A 
ATOM      3  C   UNL     1       5.760  11.346  -3.921  1.00  0.00     0.063 A 
ATOM      4  C   UNL     1       8.478  10.814  -4.261  1.00  0.00     0.315 A 
ATOM      5  C   UNL     1       6.674  12.398  -3.990  1.00  0.00     0.165 A 
ATOM      6  C   UNL     1       8.033  12.132  -4.160  1.00  0.00     0.237 A 
ENDROOT
BRANCH   1   7
ATOM      7  C   UNL     1       5.252   8.932  -3.950  1.00  0.00     0.193 C 
ATOM      8  O   UNL     1       4.309   8.944  -4.755  1.00  0.00    -0.289 OA
BRANCH   7   9
ATOM      9  C   UNL     1       5.377   7.854  -2.983  1.00  0.00     0.023 A 
ATOM     10  C   UNL     1       5.548   8.146  -1.630  1.00  0.00     0.012 A 
ATOM     11  C   UNL     1       5.325   6.526  -3.408  1.00  0.00     0.012 A 
ATOM     12  C   UNL     1       5.668   7.111  -0.703  1.00  0.00     0.004 A 
ATOM     13  C   UNL     1       5.444   5.490  -2.481  1.00  0.00     0.004 A 
ATOM     14  C   UNL     1       5.615   5.783  -1.128  1.00  0.00    -0.051 A 
ATOM     15  C   UNL     1       5.745   4.677  -0.136  1.00  0.00     0.044 C 
ENDBRANCH   7   9
ENDBRANCH   1   7
BRANCH   4  16
ATOM     16  N   UNL     1       9.859  10.522  -4.434  1.00  0.00     0.066 N 
ATOM     17  O   UNL     1      10.577  11.341  -5.058  1.00  0.00    -0.258 OA
ATOM     18  O   UNL     1      10.318   9.458  -3.958  1.00  0.00    -0.258 OA
ENDBRANCH   4  16
BRANCH   5  19
ATOM     19  O   UNL     1       6.226  13.681  -3.890  1.00  0.00    -0.504 OA
ATOM     20  H   UNL     1       6.459  14.171  -4.696  1.00  0.00     0.293 HD
ENDBRANCH   5  19
BRANCH   6  21
ATOM     21  O   UNL     1       8.917  13.169  -4.226  1.00  0.00    -0.500 OA
ATOM     22  H   UNL     1       8.452  14.005  -4.069  1.00  0.00     0.294 HD
ENDBRANCH   6  21
TORSDOF 5
ENDMDL
MODEL 6
REMARK VINA RESULT:    -4.498      3.657      6.598
REMARK INTER + INTRA:          -6.290
REMARK INTER:                  -5.319
REMARK INTRA:                  -0.971
REMARK UNBOUND:                -0.741
REMARK SMILES Cc1ccc(C(=O)c2cc(O)c(O)c([N+](=O)[O-])c2)cc1
REMARK SMILES IDX 8 1 18 2 9 3 14 4 10 5 12 6 6 7 7 8 5 9 4 10 19 11 3 12
REMARK SMILES IDX 20 13 2 14 1 15 15 16 17 17 16 18 11 19 13 21
REMARK H PARENT 11 20 13 22
ROOT
ATOM      1  C   UNL     1       6.856  10.020  -2.770  1.00  0.00     0.033 A 
ATOM      2  C   UNL     1       6.151  11.192  -2.921  1.00  0.00     0.102 A 
ATOM      3  C   UNL     1       8.140   9.857  -3.233  1.00  0.00     0.063 A 
ATOM      4  C   UNL     1       6.767  12.261  -3.571  1.00  0.00     0.315 A 
ATOM      5  C   UNL     1       8.756  10.926  -3.885  1.00  0.00     0.165 A 
ATOM      6  C   UNL     1       8.069  12.129  -4.053  1.00  0.00     0.237 A 
ENDROOT
BRANCH   1   7
ATOM      7  C   UNL     1       6.197   8.875  -2.073  1.00  0.00     0.193 C 
ATOM      8  O   UNL     1       6.785   8.391  -1.093  1.00  0.00    -0.289 OA
BRANCH   7   9
ATOM      9  C   UNL     1       4.920   8.330  -2.504  1.00  0.00     0.023 A 
ATOM     10  C   UNL     1       4.718   8.003  -3.845  1.00  0.00     0.012 A 
ATOM     11  C   UNL     1       3.896   8.134  -1.577  1.00  0.00     0.012 A 
ATOM     12  C   UNL     1       3.493   7.481  -4.258  1.00  0.00     0.004 A 
ATOM     13  C   UNL     1       2.670   7.612  -1.990  1.00  0.00     0.004 A 
ATOM     14  C   UNL     1       2.468   7.285  -3.331  1.00  0.00    -0.051 A 
ATOM     15  C   UNL     1       1.159   6.727  -3.774  1.00  0.00     0.044 C 
ENDBRANCH   7   9
ENDBRANCH   1   7
BRANCH   4  16
ATOM     16  N   UNL     1       6.051  13.479  -3.735  1.00  0.00     0.066 N 
ATOM     17  O   UNL     1       4.802  13.437  -3.851  1.00  0.00    -0.258 OA
ATOM     18  O   UNL     1       6.688  14.558  -3.756  1.00  0.00    -0.258 OA
ENDBRANCH   4  16
BRANCH   5  19
ATOM     19  O   UNL     1      10.028  10.782  -4.350  1.00  0.00    -0.504 OA
ATOM     20  H   UNL     1      10.171  11.385  -5.098  1.00  0.00     0.293 HD
ENDBRANCH   5  19
BRANCH   6  21
ATOM     21  O   UNL     1       8.681  13.168  -4.692  1.00  0.00    -0.500 OA
ATOM     22  H   UNL     1       9.506  12.859  -5.100  1.00  0.00     0.294 HD
ENDBRANCH   6  21
TORSDOF 5
ENDMDL
MODEL 7
REMARK VINA RESULT:    -4.469      1.963      2.334
REMARK INTER + INTRA:          -6.254
REMARK INTER:                  -5.593
REMARK INTRA:                  -0.661
REMARK UNBOUND:                -0.741
REMARK SMILES Cc1ccc(C(=O)c2cc(O)c(O)c([N+](=O)[O-])c2)cc1
REMARK SMILES IDX 8 1 18 2 9 3 14 4 10 5 12 6 6 7 7 8 5 9 4 10 19 11 3 12
REMARK SMILES IDX 20 13 2 14 1 15 15 16 17 17 16 18 11 19 13 21
REMARK H PARENT 11 20 13 22
ROOT
ATOM      1  C   UNL     1       4.516   8.289  -2.410  1.00  0.00     0.033 A 
ATOM      2  C   UNL     1       3.257   7.973  -2.867  1.00  0.00     0.102 A 
ATOM      3  C   UNL     1       5.260   7.439  -1.626  1.00  0.00     0.063 A 
ATOM      4  C   UNL     1       2.712   6.737  -2.520  1.00  0.00     0.315 A 
ATOM      5  C   UNL     1       4.715   6.203  -1.278  1.00  0.00     0.165 A 
ATOM      6  C   UNL     1       3.441   5.852  -1.726  1.00  0.00     0.237 A 
ENDROOT
BRANCH   1   7
ATOM      7  C   UNL     1       5.100   9.613  -2.781  1.00  0.00     0.193 C 
ATOM      8  O   UNL     1       4.357  10.603  -2.705  1.00  0.00    -0.289 OA
BRANCH   7   9
ATOM      9  C   UNL     1       6.479   9.762  -3.216  1.00  0.00     0.023 A 
ATOM     10  C   UNL     1       7.505   9.828  -2.273  1.00  0.00     0.012 A 
ATOM     11  C   UNL     1       6.777   9.840  -4.577  1.00  0.00     0.012 A 
ATOM     12  C   UNL     1       8.828   9.971  -2.691  1.00  0.00     0.004 A 
ATOM     13  C   UNL     1       8.101   9.983  -4.995  1.00  0.00     0.004 A 
ATOM     14  C   UNL     1       9.126  10.049  -4.052  1.00  0.00    -0.051 A 
ATOM     15  C   UNL     1      10.540  10.203  -4.498  1.00  0.00     0.044 C 
ENDBRANCH   7   9
ENDBRANCH   1   7
BRANCH   4  16
ATOM     16  N   UNL     1       1.412   6.397  -2.985  1.00  0.00     0.066 N 
ATOM     17  O   UNL     1       1.193   6.390  -4.220  1.00  0.00    -0.258 OA
ATOM     18  O   UNL     1       0.524   6.114  -2.148  1.00  0.00    -0.258 OA
ENDBRANCH   4  16
BRANCH   5  19
ATOM     19  O   UNL     1       5.438   5.348  -0.503  1.00  0.00    -0.504 OA
ATOM     20  H   UNL     1       5.526   5.715   0.392  1.00  0.00     0.293 HD
ENDBRANCH   5  19
BRANCH   6  21
ATOM     21  O   UNL     1       2.918   4.639  -1.380  1.00  0.00    -0.500 OA
ATOM     22  H   UNL     1       3.087   4.467  -0.441  1.00  0.00     0.294 HD
ENDBRANCH   6  21
TORSDOF 5
ENDMDL
MODEL 8
REMARK VINA RESULT:    -4.457      3.708      6.812
REMARK INTER + INTRA:          -6.240
REMARK INTER:                  -5.321
REMARK INTRA:                  -0.919
REMARK UNBOUND:                -0.741
REMARK SMILES Cc1ccc(C(=O)c2cc(O)c(O)c([N+](=O)[O-])c2)cc1
REMARK SMILES IDX 8 1 18 2 9 3 14 4 10 5 12 6 6 7 7 8 5 9 4 10 19 11 3 12
REMARK SMILES IDX 20 13 2 14 1 15 15 16 17 17 16 18 11 19 13 21
REMARK H PARENT 11 20 13 22
ROOT
ATOM      1  C   UNL     1       6.308  10.045  -3.994  1.00  0.00     0.033 A 
ATOM      2  C   UNL     1       5.884  11.348  -3.869  1.00  0.00     0.102 A 
ATOM      3  C   UNL     1       7.624   9.705  -4.197  1.00  0.00     0.063 A 
ATOM      4  C   UNL     1       6.832  12.368  -3.949  1.00  0.00     0.315 A 
ATOM      5  C   UNL     1       8.572  10.725  -4.279  1.00  0.00     0.165 A 
ATOM      6  C   UNL     1       8.175  12.057  -4.154  1.00  0.00     0.237 A 
ENDROOT
BRANCH   1   7
ATOM      7  C   UNL     1       5.293   8.952  -3.908  1.00  0.00     0.193 C 
ATOM      8  O   UNL     1       4.334   9.003  -4.693  1.00  0.00    -0.289 OA
BRANCH   7   9
ATOM      9  C   UNL     1       5.401   7.861  -2.953  1.00  0.00     0.023 A 
ATOM     10  C   UNL     1       5.576   8.136  -1.597  1.00  0.00     0.012 A 
ATOM     11  C   UNL     1       5.329   6.539  -3.392  1.00  0.00     0.012 A 
ATOM     12  C   UNL     1       5.680   7.090  -0.681  1.00  0.00     0.004 A 
ATOM     13  C   UNL     1       5.432   5.492  -2.476  1.00  0.00     0.004 A 
ATOM     14  C   UNL     1       5.608   5.767  -1.120  1.00  0.00    -0.051 A 
ATOM     15  C   UNL     1       5.720   4.649  -0.140  1.00  0.00     0.044 C 
ENDBRANCH   7   9
ENDBRANCH   1   7
BRANCH   4  16
ATOM     16  N   UNL     1       6.409  13.719  -3.820  1.00  0.00     0.066 N 
ATOM     17  O   UNL     1       7.142  14.630  -4.276  1.00  0.00    -0.258 OA
ATOM     18  O   UNL     1       5.316  13.961  -3.257  1.00  0.00    -0.258 OA
ENDBRANCH   4  16
BRANCH   5  19
ATOM     19  O   UNL     1       9.882  10.407  -4.479  1.00  0.00    -0.504 OA
ATOM     20  H   UNL     1      10.446  11.033  -3.997  1.00  0.00     0.293 HD
ENDBRANCH   5  19
BRANCH   6  21
ATOM     21  O   UNL     1       9.112  13.047  -4.235  1.00  0.00    -0.500 OA
ATOM     22  H   UNL     1       9.104  13.570  -3.418  1.00  0.00     0.294 HD
ENDBRANCH   6  21
TORSDOF 5
ENDMDL
MODEL 9
REMARK VINA RESULT:    -4.457      1.254      2.683
REMARK INTER + INTRA:          -6.240
REMARK INTER:                  -5.572
REMARK INTRA:                  -0.668
REMARK UNBOUND:                -0.741
REMARK SMILES Cc1ccc(C(=O)c2cc(O)c(O)c([N+](=O)[O-])c2)cc1
REMARK SMILES IDX 8 1 18 2 9 3 14 4 10 5 12 6 6 7 7 8 5 9 4 10 19 11 3 12
REMARK SMILES IDX 20 13 2 14 1 15 15 16 17 17 16 18 11 19 13 21
REMARK H PARENT 11 20 13 22
ROOT
ATOM      1  C   UNL     1       5.459   7.420  -2.939  1.00  0.00     0.033 A 
ATOM      2  C   UNL     1       5.792   6.428  -2.046  1.00  0.00     0.102 A 
ATOM      3  C   UNL     1       4.201   7.546  -3.479  1.00  0.00     0.063 A 
ATOM      4  C   UNL     1       4.810   5.511  -1.671  1.00  0.00     0.315 A 
ATOM      5  C   UNL     1       3.219   6.629  -3.104  1.00  0.00     0.165 A 
ATOM      6  C   UNL     1       3.524   5.611  -2.199  1.00  0.00     0.237 A 
ENDROOT
BRANCH   1   7
ATOM      7  C   UNL     1       6.511   8.402  -3.342  1.00  0.00     0.193 C 
ATOM      8  O   UNL     1       7.638   7.954  -3.601  1.00  0.00    -0.289 OA
BRANCH   7   9
ATOM      9  C   UNL     1       6.250   9.829  -3.433  1.00  0.00     0.023 A 
ATOM     10  C   UNL     1       6.596  10.671  -2.376  1.00  0.00     0.012 A 
ATOM     11  C   UNL     1       5.654  10.358  -4.578  1.00  0.00     0.012 A 
ATOM     12  C   UNL     1       6.347  12.040  -2.464  1.00  0.00     0.004 A 
ATOM     13  C   UNL     1       5.404  11.728  -4.667  1.00  0.00     0.004 A 
ATOM     14  C   UNL     1       5.751  12.569  -3.610  1.00  0.00    -0.051 A 
ATOM     15  C   UNL     1       5.483  14.033  -3.703  1.00  0.00     0.044 C 
ENDBRANCH   7   9
ENDBRANCH   1   7
BRANCH   4  16
ATOM     16  N   UNL     1       5.140   4.480  -0.748  1.00  0.00     0.066 N 
ATOM     17  O   UNL     1       4.981   3.285  -1.093  1.00  0.00    -0.258 OA
ATOM     18  O   UNL     1       5.579   4.797   0.382  1.00  0.00    -0.258 OA
ENDBRANCH   4  16
BRANCH   5  19
ATOM     19  O   UNL     1       1.966   6.739  -3.628  1.00  0.00    -0.504 OA
ATOM     20  H   UNL     1       1.984   6.494  -4.568  1.00  0.00     0.293 HD
ENDBRANCH   5  19
BRANCH   6  21
ATOM     21  O   UNL     1       2.554   4.720  -1.840  1.00  0.00    -0.500 OA
ATOM     22  H   UNL     1       2.840   4.227  -1.055  1.00  0.00     0.294 HD
ENDBRANCH   6  21
TORSDOF 5
ENDMDL
