MODEL 1
REMARK VINA RESULT:    -6.972      0.000      0.000
REMARK INTER + INTRA:          -8.758
REMARK INTER:                  -8.194
REMARK INTRA:                  -0.563
REMARK UNBOUND:                -0.563
REMARK SMILES O=C(O)c1cc(-c2ccc(F)cc2F)ccc1O
REMARK SMILES IDX 6 1 5 2 15 3 4 4 17 5 16 6 7 7 13 8 12 9 8 10 10 11 9 12
REMARK SMILES IDX 14 13 11 14 2 15 1 16 3 17 18 19
REMARK H PARENT 3 18 18 20
ROOT
ATOM      1  C   UNL     1       7.891  -3.150  -4.686  1.00  0.00    -0.014 A 
ATOM      2  C   UNL     1       6.689  -3.850  -4.778  1.00  0.00     0.028 A 
ATOM      3  C   UNL     1       7.895  -1.825  -4.251  1.00  0.00     0.013 A 
ATOM      4  C   UNL     1       5.489  -3.226  -4.434  1.00  0.00     0.102 A 
ATOM      5  C   UNL     1       5.493  -1.900  -3.999  1.00  0.00     0.130 A 
ATOM      6  C   UNL     1       6.697  -1.200  -3.907  1.00  0.00     0.048 A 
ENDROOT
BRANCH   1   7
ATOM      7  C   UNL     1       9.135  -3.797  -5.043  1.00  0.00     0.018 A 
ATOM      8  C   UNL     1       9.403  -5.094  -4.602  1.00  0.00     0.133 A 
ATOM      9  C   UNL     1      10.603  -5.713  -4.948  1.00  0.00     0.079 A 
ATOM     10  C   UNL     1      10.067  -3.123  -5.832  1.00  0.00     0.015 A 
ATOM     11  C   UNL     1      11.535  -5.038  -5.736  1.00  0.00     0.126 A 
ATOM     12  C   UNL     1      11.266  -3.743  -6.178  1.00  0.00     0.040 A 
ATOM     13  F   UNL     1       8.519  -5.755  -3.841  1.00  0.00    -0.206 F 
ATOM     14  F   UNL     1      12.688  -5.633  -6.069  1.00  0.00    -0.207 F 
ENDBRANCH   1   7
BRANCH   4  15
ATOM     15  C   UNL     1       4.244  -3.974  -4.536  1.00  0.00     0.339 C 
ATOM     16  O   UNL     1       3.249  -3.620  -5.172  1.00  0.00    -0.246 OA
BRANCH  15  17
ATOM     17  O   UNL     1       4.284  -5.143  -3.841  1.00  0.00    -0.478 OA
ATOM     18  H   UNL     1       5.054  -5.693  -4.097  1.00  0.00     0.297 HD
ENDBRANCH  15  17
ENDBRANCH   4  15
BRANCH   5  19
ATOM     19  O   UNL     1       4.333  -1.272  -3.658  1.00  0.00    -0.507 OA
ATOM     20  H   UNL     1       4.125  -0.602  -4.332  1.00  0.00     0.293 HD
ENDBRANCH   5  19
TORSDOF 4
ENDMDL
MODEL 2
REMARK VINA RESULT:    -6.961      1.136      1.614
REMARK INTER + INTRA:          -8.744
REMARK INTER:                  -8.184
REMARK INTRA:                  -0.560
REMARK UNBOUND:                -0.563
REMARK SMILES O=C(O)c1cc(-c2ccc(F)cc2F)ccc1O
REMARK SMILES IDX 6 1 5 2 15 3 4 4 17 5 16 6 7 7 13 8 12 9 8 10 10 11 9 12
REMARK SMILES IDX 14 13 11 14 2 15 1 16 3 17 18 19
REMARK H PARENT 3 18 18 20
ROOT
ATOM      1  C   UNL     1       7.886  -3.097  -4.728  1.00  0.00    -0.014 A 
ATOM      2  C   UNL     1       6.693  -3.814  -4.811  1.00  0.00     0.028 A 
ATOM      3  C   UNL     1       7.876  -1.774  -4.287  1.00  0.00     0.013 A 
ATOM      4  C   UNL     1       5.488  -3.207  -4.454  1.00  0.00     0.102 A 
ATOM      5  C   UNL     1       5.478  -1.884  -4.013  1.00  0.00     0.130 A 
ATOM      6  C   UNL     1       6.673  -1.167  -3.930  1.00  0.00     0.048 A 
ENDROOT
BRANCH   1   7
ATOM      7  C   UNL     1       9.136  -3.725  -5.099  1.00  0.00     0.018 A 
ATOM      8  C   UNL     1      10.050  -3.045  -5.905  1.00  0.00     0.133 A 
ATOM      9  C   UNL     1      11.253  -3.654  -6.261  1.00  0.00     0.079 A 
ATOM     10  C   UNL     1       9.426  -5.013  -4.649  1.00  0.00     0.015 A 
ATOM     11  C   UNL     1      11.543  -4.942  -5.812  1.00  0.00     0.126 A 
ATOM     12  C   UNL     1      10.629  -5.621  -5.005  1.00  0.00     0.040 A 
ATOM     13  F   UNL     1       9.785  -1.808  -6.348  1.00  0.00    -0.206 F 
ATOM     14  F   UNL     1      12.698  -5.528  -6.153  1.00  0.00    -0.207 F 
ENDBRANCH   1   7
BRANCH   4  15
ATOM     15  C   UNL     1       4.253  -3.972  -4.547  1.00  0.00     0.339 C 
ATOM     16  O   UNL     1       3.246  -3.628  -5.170  1.00  0.00    -0.246 OA
BRANCH  15  17
ATOM     17  O   UNL     1       4.317  -5.145  -3.860  1.00  0.00    -0.478 OA
ATOM     18  H   UNL     1       4.886  -5.803  -4.313  1.00  0.00     0.297 HD
ENDBRANCH  15  17
ENDBRANCH   4  15
BRANCH   5  19
ATOM     19  O   UNL     1       4.312  -1.273  -3.659  1.00  0.00    -0.507 OA
ATOM     20  H   UNL     1       3.955  -0.799  -4.430  1.00  0.00     0.293 HD
ENDBRANCH   5  19
TORSDOF 4
ENDMDL
MODEL 3
REMARK VINA RESULT:    -6.907      1.757      3.225
REMARK INTER + INTRA:          -8.682
REMARK INTER:                  -7.889
REMARK INTRA:                  -0.792
REMARK UNBOUND:                -0.563
REMARK SMILES O=C(O)c1cc(-c2ccc(F)cc2F)ccc1O
REMARK SMILES IDX 6 1 5 2 15 3 4 4 17 5 16 6 7 7 13 8 12 9 8 10 10 11 9 12
REMARK SMILES IDX 14 13 11 14 2 15 1 16 3 17 18 19
REMARK H PARENT 3 18 18 20
ROOT
ATOM      1  C   UNL     1       8.021  -3.006  -4.842  1.00  0.00    -0.014 A 
ATOM      2  C   UNL     1       8.121  -1.747  -4.251  1.00  0.00     0.028 A 
ATOM      3  C   UNL     1       6.766  -3.558  -5.098  1.00  0.00     0.013 A 
ATOM      4  C   UNL     1       6.966  -1.040  -3.915  1.00  0.00     0.102 A 
ATOM      5  C   UNL     1       5.711  -1.592  -4.170  1.00  0.00     0.130 A 
ATOM      6  C   UNL     1       5.611  -2.852  -4.762  1.00  0.00     0.048 A 
ENDROOT
BRANCH   1   7
ATOM      7  C   UNL     1       9.218  -3.741  -5.190  1.00  0.00     0.018 A 
ATOM      8  C   UNL     1      10.197  -3.147  -5.988  1.00  0.00     0.133 A 
ATOM      9  C   UNL     1      11.349  -3.859  -6.321  1.00  0.00     0.079 A 
ATOM     10  C   UNL     1       9.393  -5.043  -4.724  1.00  0.00     0.015 A 
ATOM     11  C   UNL     1      11.523  -5.162  -5.856  1.00  0.00     0.126 A 
ATOM     12  C   UNL     1      10.545  -5.754  -5.057  1.00  0.00     0.040 A 
ATOM     13  F   UNL     1      10.043  -1.897  -6.446  1.00  0.00    -0.206 F 
ATOM     14  F   UNL     1      12.630  -5.846  -6.175  1.00  0.00    -0.207 F 
ENDBRANCH   1   7
BRANCH   4  15
ATOM     15  C   UNL     1       7.092   0.274  -3.298  1.00  0.00     0.339 C 
ATOM     16  O   UNL     1       6.289   0.770  -2.505  1.00  0.00    -0.246 OA
BRANCH  15  17
ATOM     17  O   UNL     1       8.221   0.925  -3.692  1.00  0.00    -0.478 OA
ATOM     18  H   UNL     1       8.347   0.880  -4.663  1.00  0.00     0.297 HD
ENDBRANCH  15  17
ENDBRANCH   4  15
BRANCH   5  19
ATOM     19  O   UNL     1       4.571  -0.918  -3.850  1.00  0.00    -0.507 OA
ATOM     20  H   UNL     1       4.492  -0.870  -2.882  1.00  0.00     0.293 HD
ENDBRANCH   5  19
TORSDOF 4
ENDMDL
MODEL 4
REMARK VINA RESULT:    -5.610      1.270      1.342
REMARK INTER + INTRA:          -7.157
REMARK INTER:                  -6.615
REMARK INTRA:                  -0.543
REMARK UNBOUND:                -0.563
REMARK SMILES O=C(O)c1cc(-c2ccc(F)cc2F)ccc1O
REMARK SMILES IDX 6 1 5 2 15 3 4 4 17 5 16 6 7 7 13 8 12 9 8 10 10 11 9 12
REMARK SMILES IDX 14 13 11 14 2 15 1 16 3 17 18 19
REMARK H PARENT 3 18 18 20
ROOT
ATOM      1  C   UNL     1       8.455  -3.542  -4.727  1.00  0.00    -0.014 A 
ATOM      2  C   UNL     1       7.320  -4.349  -4.807  1.00  0.00     0.028 A 
ATOM      3  C   UNL     1       8.338  -2.213  -4.321  1.00  0.00     0.013 A 
ATOM      4  C   UNL     1       6.068  -3.827  -4.481  1.00  0.00     0.102 A 
ATOM      5  C   UNL     1       5.952  -2.498  -4.075  1.00  0.00     0.130 A 
ATOM      6  C   UNL     1       7.087  -1.690  -3.995  1.00  0.00     0.048 A 
ENDROOT
BRANCH   1   7
ATOM      7  C   UNL     1       9.754  -4.083  -5.067  1.00  0.00     0.018 A 
ATOM      8  C   UNL     1       9.884  -4.980  -6.127  1.00  0.00     0.133 A 
ATOM      9  C   UNL     1      11.138  -5.499  -6.451  1.00  0.00     0.079 A 
ATOM     10  C   UNL     1      10.877  -3.704  -4.331  1.00  0.00     0.015 A 
ATOM     11  C   UNL     1      12.260  -5.121  -5.715  1.00  0.00     0.126 A 
ATOM     12  C   UNL     1      12.129  -4.223  -4.656  1.00  0.00     0.040 A 
ATOM     13  F   UNL     1       8.814  -5.356  -6.842  1.00  0.00    -0.206 F 
ATOM     14  F   UNL     1      13.464  -5.618  -6.025  1.00  0.00    -0.207 F 
ENDBRANCH   1   7
BRANCH   4  15
ATOM     15  C   UNL     1       4.896  -4.686  -4.570  1.00  0.00     0.339 C 
ATOM     16  O   UNL     1       4.548  -5.318  -5.571  1.00  0.00    -0.246 OA
BRANCH  15  17
ATOM     17  O   UNL     1       4.195  -4.730  -3.404  1.00  0.00    -0.478 OA
ATOM     18  H   UNL     1       3.237  -4.587  -3.549  1.00  0.00     0.297 HD
ENDBRANCH  15  17
ENDBRANCH   4  15
BRANCH   5  19
ATOM     19  O   UNL     1       4.738  -1.969  -3.751  1.00  0.00    -0.507 OA
ATOM     20  H   UNL     1       4.371  -2.456  -2.994  1.00  0.00     0.293 HD
ENDBRANCH   5  19
TORSDOF 4
ENDMDL
MODEL 5
REMARK VINA RESULT:    -5.404      4.114      6.342
REMARK INTER + INTRA:          -6.915
REMARK INTER:                  -5.831
REMARK INTRA:                  -1.084
REMARK UNBOUND:                -0.563
REMARK SMILES O=C(O)c1cc(-c2ccc(F)cc2F)ccc1O
REMARK SMILES IDX 6 1 5 2 15 3 4 4 17 5 16 6 7 7 13 8 12 9 8 10 10 11 9 12
REMARK SMILES IDX 14 13 11 14 2 15 1 16 3 17 18 19
REMARK H PARENT 3 18 18 20
ROOT
ATOM      1  C   UNL     1      10.009  -4.544  -5.312  1.00  0.00    -0.014 A 
ATOM      2  C   UNL     1      10.241  -5.471  -6.328  1.00  0.00     0.028 A 
ATOM      3  C   UNL     1      11.074  -4.067  -4.548  1.00  0.00     0.013 A 
ATOM      4  C   UNL     1      11.537  -5.921  -6.580  1.00  0.00     0.102 A 
ATOM      5  C   UNL     1      12.601  -5.444  -5.816  1.00  0.00     0.130 A 
ATOM      6  C   UNL     1      12.370  -4.517  -4.799  1.00  0.00     0.048 A 
ENDROOT
BRANCH   1   7
ATOM      7  C   UNL     1       8.665  -4.078  -5.050  1.00  0.00     0.018 A 
ATOM      8  C   UNL     1       7.840  -4.778  -4.168  1.00  0.00     0.133 A 
ATOM      9  C   UNL     1       6.544  -4.325  -3.918  1.00  0.00     0.079 A 
ATOM     10  C   UNL     1       8.195  -2.925  -5.679  1.00  0.00     0.015 A 
ATOM     11  C   UNL     1       6.074  -3.173  -4.548  1.00  0.00     0.126 A 
ATOM     12  C   UNL     1       6.900  -2.473  -5.428  1.00  0.00     0.040 A 
ATOM     13  F   UNL     1       8.276  -5.889  -3.558  1.00  0.00    -0.206 F 
ATOM     14  F   UNL     1       4.831  -2.738  -4.308  1.00  0.00    -0.207 F 
ENDBRANCH   1   7
BRANCH   4  15
ATOM     15  C   UNL     1      11.758  -6.888  -7.646  1.00  0.00     0.339 C 
ATOM     16  O   UNL     1      12.860  -7.273  -8.044  1.00  0.00    -0.246 OA
BRANCH  15  17
ATOM     17  O   UNL     1      10.593  -7.346  -8.180  1.00  0.00    -0.478 OA
ATOM     18  H   UNL     1      10.460  -8.300  -8.001  1.00  0.00     0.297 HD
ENDBRANCH  15  17
ENDBRANCH   4  15
BRANCH   5  19
ATOM     19  O   UNL     1      13.875  -5.871  -6.046  1.00  0.00    -0.507 OA
ATOM     20  H   UNL     1      14.221  -5.425  -6.839  1.00  0.00     0.293 HD
ENDBRANCH   5  19
TORSDOF 4
ENDMDL
MODEL 6
REMARK VINA RESULT:    -5.385      1.182      1.338
REMARK INTER + INTRA:          -6.893
REMARK INTER:                  -6.362
REMARK INTRA:                  -0.531
REMARK UNBOUND:                -0.563
REMARK SMILES O=C(O)c1cc(-c2ccc(F)cc2F)ccc1O
REMARK SMILES IDX 6 1 5 2 15 3 4 4 17 5 16 6 7 7 13 8 12 9 8 10 10 11 9 12
REMARK SMILES IDX 14 13 11 14 2 15 1 16 3 17 18 19
REMARK H PARENT 3 18 18 20
ROOT
ATOM      1  C   UNL     1       8.184  -3.490  -4.978  1.00  0.00    -0.014 A 
ATOM      2  C   UNL     1       7.006  -4.234  -4.970  1.00  0.00     0.028 A 
ATOM      3  C   UNL     1       8.155  -2.134  -4.652  1.00  0.00     0.013 A 
ATOM      4  C   UNL     1       5.796  -3.624  -4.637  1.00  0.00     0.102 A 
ATOM      5  C   UNL     1       5.767  -2.268  -4.311  1.00  0.00     0.130 A 
ATOM      6  C   UNL     1       6.947  -1.522  -4.319  1.00  0.00     0.048 A 
ENDROOT
BRANCH   1   7
ATOM      7  C   UNL     1       9.439  -4.122  -5.325  1.00  0.00     0.018 A 
ATOM      8  C   UNL     1      10.610  -3.770  -4.652  1.00  0.00     0.133 A 
ATOM      9  C   UNL     1      11.818  -4.382  -4.990  1.00  0.00     0.079 A 
ATOM     10  C   UNL     1       9.475  -5.085  -6.332  1.00  0.00     0.015 A 
ATOM     11  C   UNL     1      11.854  -5.345  -5.998  1.00  0.00     0.126 A 
ATOM     12  C   UNL     1      10.682  -5.697  -6.669  1.00  0.00     0.040 A 
ATOM     13  F   UNL     1      10.593  -2.844  -3.683  1.00  0.00    -0.206 F 
ATOM     14  F   UNL     1      13.012  -5.933  -6.323  1.00  0.00    -0.207 F 
ENDBRANCH   1   7
BRANCH   4  15
ATOM     15  C   UNL     1       4.577  -4.419  -4.634  1.00  0.00     0.339 C 
ATOM     16  O   UNL     1       3.472  -4.034  -5.026  1.00  0.00    -0.246 OA
BRANCH  15  17
ATOM     17  O   UNL     1       4.776  -5.673  -4.143  1.00  0.00    -0.478 OA
ATOM     18  H   UNL     1       5.623  -6.056  -4.455  1.00  0.00     0.297 HD
ENDBRANCH  15  17
ENDBRANCH   4  15
BRANCH   5  19
ATOM     19  O   UNL     1       4.596  -1.652  -3.982  1.00  0.00    -0.507 OA
ATOM     20  H   UNL     1       4.140  -2.180  -3.303  1.00  0.00     0.293 HD
ENDBRANCH   5  19
TORSDOF 4
ENDMDL
MODEL 7
REMARK VINA RESULT:    -5.358      4.597      6.945
REMARK INTER + INTRA:          -6.861
REMARK INTER:                  -5.786
REMARK INTRA:                  -1.074
REMARK UNBOUND:                -0.563
REMARK SMILES O=C(O)c1cc(-c2ccc(F)cc2F)ccc1O
REMARK SMILES IDX 6 1 5 2 15 3 4 4 17 5 16 6 7 7 13 8 12 9 8 10 10 11 9 12
REMARK SMILES IDX 14 13 11 14 2 15 1 16 3 17 18 19
REMARK H PARENT 3 18 18 20
ROOT
ATOM      1  C   UNL     1      10.282  -4.170  -5.440  1.00  0.00    -0.014 A 
ATOM      2  C   UNL     1      11.480  -3.949  -4.763  1.00  0.00     0.028 A 
ATOM      3  C   UNL     1      10.216  -5.137  -6.444  1.00  0.00     0.013 A 
ATOM      4  C   UNL     1      12.614  -4.694  -5.089  1.00  0.00     0.102 A 
ATOM      5  C   UNL     1      12.548  -5.660  -6.092  1.00  0.00     0.130 A 
ATOM      6  C   UNL     1      11.349  -5.882  -6.770  1.00  0.00     0.048 A 
ENDROOT
BRANCH   1   7
ATOM      7  C   UNL     1       9.106  -3.397  -5.104  1.00  0.00     0.018 A 
ATOM      8  C   UNL     1       8.905  -2.141  -5.678  1.00  0.00     0.133 A 
ATOM      9  C   UNL     1       7.770  -1.399  -5.351  1.00  0.00     0.079 A 
ATOM     10  C   UNL     1       8.172  -3.910  -4.205  1.00  0.00     0.015 A 
ATOM     11  C   UNL     1       6.837  -1.912  -4.451  1.00  0.00     0.126 A 
ATOM     12  C   UNL     1       7.037  -3.168  -3.878  1.00  0.00     0.040 A 
ATOM     13  F   UNL     1       9.795  -1.632  -6.542  1.00  0.00    -0.206 F 
ATOM     14  F   UNL     1       5.747  -1.200  -4.136  1.00  0.00    -0.207 F 
ENDBRANCH   1   7
BRANCH   4  15
ATOM     15  C   UNL     1      13.856  -4.447  -4.370  1.00  0.00     0.339 C 
ATOM     16  O   UNL     1      14.869  -5.149  -4.433  1.00  0.00    -0.246 OA
BRANCH  15  17
ATOM     17  O   UNL     1      13.794  -3.329  -3.596  1.00  0.00    -0.478 OA
ATOM     18  H   UNL     1      14.303  -2.587  -3.986  1.00  0.00     0.297 HD
ENDBRANCH  15  17
ENDBRANCH   4  15
BRANCH   5  19
ATOM     19  O   UNL     1      13.644  -6.399  -6.425  1.00  0.00    -0.507 OA
ATOM     20  H   UNL     1      14.435  -5.986  -6.038  1.00  0.00     0.293 HD
ENDBRANCH   5  19
TORSDOF 4
ENDMDL
MODEL 8
REMARK VINA RESULT:    -5.010      1.947      3.162
REMARK INTER + INTRA:          -6.452
REMARK INTER:                  -5.634
REMARK INTRA:                  -0.818
REMARK UNBOUND:                -0.563
REMARK SMILES O=C(O)c1cc(-c2ccc(F)cc2F)ccc1O
REMARK SMILES IDX 6 1 5 2 15 3 4 4 17 5 16 6 7 7 13 8 12 9 8 10 10 11 9 12
REMARK SMILES IDX 14 13 11 14 2 15 1 16 3 17 18 19
REMARK H PARENT 3 18 18 20
ROOT
ATOM      1  C   UNL     1       8.999  -3.811  -4.751  1.00  0.00    -0.014 A 
ATOM      2  C   UNL     1       8.941  -2.418  -4.725  1.00  0.00     0.028 A 
ATOM      3  C   UNL     1       7.916  -4.563  -4.296  1.00  0.00     0.013 A 
ATOM      4  C   UNL     1       7.801  -1.776  -4.243  1.00  0.00     0.102 A 
ATOM      5  C   UNL     1       6.718  -2.528  -3.787  1.00  0.00     0.130 A 
ATOM      6  C   UNL     1       6.776  -3.922  -3.813  1.00  0.00     0.048 A 
ENDROOT
BRANCH   1   7
ATOM      7  C   UNL     1      10.183  -4.478  -5.250  1.00  0.00     0.018 A 
ATOM      8  C   UNL     1      11.433  -4.186  -4.705  1.00  0.00     0.133 A 
ATOM      9  C   UNL     1      12.572  -4.831  -5.189  1.00  0.00     0.079 A 
ATOM     10  C   UNL     1      10.071  -5.414  -6.277  1.00  0.00     0.015 A 
ATOM     11  C   UNL     1      12.460  -5.767  -6.217  1.00  0.00     0.126 A 
ATOM     12  C   UNL     1      11.209  -6.059  -6.760  1.00  0.00     0.040 A 
ATOM     13  F   UNL     1      11.559  -3.286  -3.719  1.00  0.00    -0.206 F 
ATOM     14  F   UNL     1      13.552  -6.386  -6.682  1.00  0.00    -0.207 F 
ENDBRANCH   1   7
BRANCH   4  15
ATOM     15  C   UNL     1       7.760  -0.320  -4.224  1.00  0.00     0.339 C 
ATOM     16  O   UNL     1       8.181   0.417  -5.118  1.00  0.00    -0.246 OA
BRANCH  15  17
ATOM     17  O   UNL     1       7.193   0.168  -3.087  1.00  0.00    -0.478 OA
ATOM     18  H   UNL     1       7.818   0.725  -2.577  1.00  0.00     0.297 HD
ENDBRANCH  15  17
ENDBRANCH   4  15
BRANCH   5  19
ATOM     19  O   UNL     1       5.594  -1.920  -3.312  1.00  0.00    -0.507 OA
ATOM     20  H   UNL     1       4.986  -1.754  -4.054  1.00  0.00     0.293 HD
ENDBRANCH   5  19
TORSDOF 4
ENDMDL
MODEL 9
REMARK VINA RESULT:    -4.757      8.294     10.555
REMARK INTER + INTRA:          -6.155
REMARK INTER:                  -5.137
REMARK INTRA:                  -1.018
REMARK UNBOUND:                -0.563
REMARK SMILES O=C(O)c1cc(-c2ccc(F)cc2F)ccc1O
REMARK SMILES IDX 6 1 5 2 15 3 4 4 17 5 16 6 7 7 13 8 12 9 8 10 10 11 9 12
REMARK SMILES IDX 14 13 11 14 2 15 1 16 3 17 18 19
REMARK H PARENT 3 18 18 20
ROOT
ATOM      1  C   UNL     1      12.696  -8.037 -11.347  1.00  0.00    -0.014 A 
ATOM      2  C   UNL     1      12.104  -9.076 -12.064  1.00  0.00     0.028 A 
ATOM      3  C   UNL     1      13.784  -7.350 -11.885  1.00  0.00     0.013 A 
ATOM      4  C   UNL     1      12.601  -9.430 -13.319  1.00  0.00     0.102 A 
ATOM      5  C   UNL     1      13.689  -8.743 -13.856  1.00  0.00     0.130 A 
ATOM      6  C   UNL     1      14.281  -7.703 -13.139  1.00  0.00     0.048 A 
ENDROOT
BRANCH   1   7
ATOM      7  C   UNL     1      12.182  -7.671 -10.045  1.00  0.00     0.018 A 
ATOM      8  C   UNL     1      12.816  -8.125  -8.888  1.00  0.00     0.133 A 
ATOM      9  C   UNL     1      12.317  -7.770  -7.635  1.00  0.00     0.079 A 
ATOM     10  C   UNL     1      11.051  -6.861  -9.948  1.00  0.00     0.015 A 
ATOM     11  C   UNL     1      11.186  -6.961  -7.538  1.00  0.00     0.126 A 
ATOM     12  C   UNL     1      10.553  -6.506  -8.695  1.00  0.00     0.040 A 
ATOM     13  F   UNL     1      13.903  -8.907  -8.964  1.00  0.00    -0.206 F 
ATOM     14  F   UNL     1      10.707  -6.619  -6.335  1.00  0.00    -0.207 F 
ENDBRANCH   1   7
BRANCH   4  15
ATOM     15  C   UNL     1      11.969 -10.518 -14.052  1.00  0.00     0.339 C 
ATOM     16  O   UNL     1      12.561 -11.360 -14.732  1.00  0.00    -0.246 OA
BRANCH  15  17
ATOM     17  O   UNL     1      10.615 -10.521 -13.910  1.00  0.00    -0.478 OA
ATOM     18  H   UNL     1      10.158 -10.489 -14.776  1.00  0.00     0.297 HD
ENDBRANCH  15  17
ENDBRANCH   4  15
BRANCH   5  19
ATOM     19  O   UNL     1      14.189  -9.072 -15.081  1.00  0.00    -0.507 OA
ATOM     20  H   UNL     1      14.469 -10.004 -15.069  1.00  0.00     0.293 HD
ENDBRANCH   5  19
TORSDOF 4
ENDMDL
