MODEL 1
REMARK VINA RESULT:    -6.937      0.000      0.000
REMARK INTER + INTRA:          -8.721
REMARK INTER:                  -8.154
REMARK INTRA:                  -0.567
REMARK UNBOUND:                -0.567
REMARK SMILES O=C(O)c1cc(-c2ccc(F)cc2F)ccc1O
REMARK SMILES IDX 6 1 5 2 15 3 4 4 17 5 16 6 7 7 13 8 12 9 8 10 10 11 9 12
REMARK SMILES IDX 14 13 11 14 2 15 1 16 3 17 18 19
REMARK H PARENT 3 18 18 20
ROOT
ATOM      1  C   UNL     1       4.718   7.577  -2.542  1.00  0.00    -0.014 A 
ATOM      2  C   UNL     1       5.295   6.540  -1.810  1.00  0.00     0.028 A 
ATOM      3  C   UNL     1       3.369   7.517  -2.892  1.00  0.00     0.013 A 
ATOM      4  C   UNL     1       4.524   5.442  -1.428  1.00  0.00     0.102 A 
ATOM      5  C   UNL     1       3.175   5.382  -1.778  1.00  0.00     0.130 A 
ATOM      6  C   UNL     1       2.597   6.420  -2.510  1.00  0.00     0.048 A 
ENDROOT
BRANCH   1   7
ATOM      7  C   UNL     1       5.518   8.715  -2.940  1.00  0.00     0.018 A 
ATOM      8  C   UNL     1       6.388   9.313  -2.028  1.00  0.00     0.133 A 
ATOM      9  C   UNL     1       7.157  10.411  -2.416  1.00  0.00     0.079 A 
ATOM     10  C   UNL     1       5.418   9.214  -4.239  1.00  0.00     0.015 A 
ATOM     11  C   UNL     1       7.056  10.910  -3.714  1.00  0.00     0.126 A 
ATOM     12  C   UNL     1       6.187  10.311  -4.625  1.00  0.00     0.040 A 
ATOM     13  F   UNL     1       6.494   8.848  -0.775  1.00  0.00    -0.206 F 
ATOM     14  F   UNL     1       7.794  11.963  -4.087  1.00  0.00    -0.207 F 
ENDBRANCH   1   7
BRANCH   4  15
ATOM     15  C   UNL     1       5.146   4.369  -0.664  1.00  0.00     0.339 C 
ATOM     16  O   UNL     1       5.117   3.172  -0.960  1.00  0.00    -0.246 OA
BRANCH  15  17
ATOM     17  O   UNL     1       5.785   4.827   0.447  1.00  0.00    -0.478 OA
ATOM     18  H   UNL     1       5.803   5.807   0.479  1.00  0.00     0.297 HD
ENDBRANCH  15  17
ENDBRANCH   4  15
BRANCH   5  19
ATOM     19  O   UNL     1       2.404   4.318  -1.414  1.00  0.00    -0.507 OA
ATOM     20  H   UNL     1       1.593   4.646  -0.987  1.00  0.00     0.293 HD
ENDBRANCH   5  19
TORSDOF 4
ENDMDL
MODEL 2
REMARK VINA RESULT:    -6.934      1.124      1.606
REMARK INTER + INTRA:          -8.717
REMARK INTER:                  -8.141
REMARK INTRA:                  -0.576
REMARK UNBOUND:                -0.567
REMARK SMILES O=C(O)c1cc(-c2ccc(F)cc2F)ccc1O
REMARK SMILES IDX 6 1 5 2 15 3 4 4 17 5 16 6 7 7 13 8 12 9 8 10 10 11 9 12
REMARK SMILES IDX 14 13 11 14 2 15 1 16 3 17 18 19
REMARK H PARENT 3 18 18 20
ROOT
ATOM      1  C   UNL     1       4.707   7.559  -2.577  1.00  0.00    -0.014 A 
ATOM      2  C   UNL     1       5.286   6.528  -1.838  1.00  0.00     0.028 A 
ATOM      3  C   UNL     1       3.358   7.494  -2.926  1.00  0.00     0.013 A 
ATOM      4  C   UNL     1       4.516   5.433  -1.446  1.00  0.00     0.102 A 
ATOM      5  C   UNL     1       3.167   5.368  -1.795  1.00  0.00     0.130 A 
ATOM      6  C   UNL     1       2.588   6.400  -2.535  1.00  0.00     0.048 A 
ENDROOT
BRANCH   1   7
ATOM      7  C   UNL     1       5.505   8.695  -2.985  1.00  0.00     0.018 A 
ATOM      8  C   UNL     1       5.432   9.168  -4.296  1.00  0.00     0.133 A 
ATOM      9  C   UNL     1       6.204  10.264  -4.684  1.00  0.00     0.079 A 
ATOM     10  C   UNL     1       6.348   9.317  -2.064  1.00  0.00     0.015 A 
ATOM     11  C   UNL     1       7.047  10.885  -3.764  1.00  0.00     0.126 A 
ATOM     12  C   UNL     1       7.118  10.412  -2.454  1.00  0.00     0.040 A 
ATOM     13  F   UNL     1       4.629   8.580  -5.193  1.00  0.00    -0.206 F 
ATOM     14  F   UNL     1       7.787  11.937  -4.137  1.00  0.00    -0.207 F 
ENDBRANCH   1   7
BRANCH   4  15
ATOM     15  C   UNL     1       5.140   4.367  -0.673  1.00  0.00     0.339 C 
ATOM     16  O   UNL     1       5.116   3.168  -0.963  1.00  0.00    -0.246 OA
BRANCH  15  17
ATOM     17  O   UNL     1       5.774   4.834   0.436  1.00  0.00    -0.478 OA
ATOM     18  H   UNL     1       6.743   4.900   0.302  1.00  0.00     0.297 HD
ENDBRANCH  15  17
ENDBRANCH   4  15
BRANCH   5  19
ATOM     19  O   UNL     1       2.398   4.307  -1.421  1.00  0.00    -0.507 OA
ATOM     20  H   UNL     1       2.841   3.833  -0.697  1.00  0.00     0.293 HD
ENDBRANCH   5  19
TORSDOF 4
ENDMDL
MODEL 3
REMARK VINA RESULT:    -6.897      1.673      3.160
REMARK INTER + INTRA:          -8.673
REMARK INTER:                  -7.984
REMARK INTRA:                  -0.689
REMARK UNBOUND:                -0.567
REMARK SMILES O=C(O)c1cc(-c2ccc(F)cc2F)ccc1O
REMARK SMILES IDX 6 1 5 2 15 3 4 4 17 5 16 6 7 7 13 8 12 9 8 10 10 11 9 12
REMARK SMILES IDX 14 13 11 14 2 15 1 16 3 17 18 19
REMARK H PARENT 3 18 18 20
ROOT
ATOM      1  C   UNL     1       4.754   7.555  -2.662  1.00  0.00    -0.014 A 
ATOM      2  C   UNL     1       3.396   7.568  -2.980  1.00  0.00     0.028 A 
ATOM      3  C   UNL     1       5.306   6.455  -2.005  1.00  0.00     0.013 A 
ATOM      4  C   UNL     1       2.590   6.481  -2.641  1.00  0.00     0.102 A 
ATOM      5  C   UNL     1       3.141   5.382  -1.984  1.00  0.00     0.130 A 
ATOM      6  C   UNL     1       4.500   5.369  -1.666  1.00  0.00     0.048 A 
ENDROOT
BRANCH   1   7
ATOM      7  C   UNL     1       5.591   8.682  -3.012  1.00  0.00     0.018 A 
ATOM      8  C   UNL     1       5.546   9.215  -4.301  1.00  0.00     0.133 A 
ATOM      9  C   UNL     1       6.354  10.301  -4.635  1.00  0.00     0.079 A 
ATOM     10  C   UNL     1       6.443   9.237  -2.058  1.00  0.00     0.015 A 
ATOM     11  C   UNL     1       7.207  10.855  -3.680  1.00  0.00     0.126 A 
ATOM     12  C   UNL     1       7.251  10.323  -2.392  1.00  0.00     0.040 A 
ATOM     13  F   UNL     1       4.734   8.692  -5.231  1.00  0.00    -0.206 F 
ATOM     14  F   UNL     1       7.984  11.899  -4.000  1.00  0.00    -0.207 F 
ENDBRANCH   1   7
BRANCH   4  15
ATOM     15  C   UNL     1       1.174   6.514  -2.983  1.00  0.00     0.339 C 
ATOM     16  O   UNL     1       0.257   6.112  -2.263  1.00  0.00    -0.246 OA
BRANCH  15  17
ATOM     17  O   UNL     1       0.950   7.050  -4.214  1.00  0.00    -0.478 OA
ATOM     18  H   UNL     1       0.059   6.824  -4.553  1.00  0.00     0.297 HD
ENDBRANCH  15  17
ENDBRANCH   4  15
BRANCH   5  19
ATOM     19  O   UNL     1       2.371   4.310  -1.645  1.00  0.00    -0.507 OA
ATOM     20  H   UNL     1       2.609   3.555  -2.211  1.00  0.00     0.293 HD
ENDBRANCH   5  19
TORSDOF 4
ENDMDL
MODEL 4
REMARK VINA RESULT:    -6.886      1.259      2.721
REMARK INTER + INTRA:          -8.661
REMARK INTER:                  -7.970
REMARK INTRA:                  -0.691
REMARK UNBOUND:                -0.567
REMARK SMILES O=C(O)c1cc(-c2ccc(F)cc2F)ccc1O
REMARK SMILES IDX 6 1 5 2 15 3 4 4 17 5 16 6 7 7 13 8 12 9 8 10 10 11 9 12
REMARK SMILES IDX 14 13 11 14 2 15 1 16 3 17 18 19
REMARK H PARENT 3 18 18 20
ROOT
ATOM      1  C   UNL     1       4.754   7.563  -2.626  1.00  0.00    -0.014 A 
ATOM      2  C   UNL     1       3.399   7.574  -2.956  1.00  0.00     0.028 A 
ATOM      3  C   UNL     1       5.301   6.464  -1.965  1.00  0.00     0.013 A 
ATOM      4  C   UNL     1       2.591   6.486  -2.625  1.00  0.00     0.102 A 
ATOM      5  C   UNL     1       3.139   5.386  -1.964  1.00  0.00     0.130 A 
ATOM      6  C   UNL     1       4.495   5.376  -1.634  1.00  0.00     0.048 A 
ENDROOT
BRANCH   1   7
ATOM      7  C   UNL     1       5.592   8.692  -2.967  1.00  0.00     0.018 A 
ATOM      8  C   UNL     1       6.426   9.262  -2.005  1.00  0.00     0.133 A 
ATOM      9  C   UNL     1       7.233  10.350  -2.338  1.00  0.00     0.079 A 
ATOM     10  C   UNL     1       5.565   9.211  -4.262  1.00  0.00     0.015 A 
ATOM     11  C   UNL     1       7.205  10.869  -3.632  1.00  0.00     0.126 A 
ATOM     12  C   UNL     1       6.371  10.298  -4.594  1.00  0.00     0.040 A 
ATOM     13  F   UNL     1       6.463   8.777  -0.755  1.00  0.00    -0.206 F 
ATOM     14  F   UNL     1       7.978  11.914  -3.953  1.00  0.00    -0.207 F 
ENDBRANCH   1   7
BRANCH   4  15
ATOM     15  C   UNL     1       1.179   6.516  -2.980  1.00  0.00     0.339 C 
ATOM     16  O   UNL     1       0.256   6.115  -2.267  1.00  0.00    -0.246 OA
BRANCH  15  17
ATOM     17  O   UNL     1       0.965   7.049  -4.213  1.00  0.00    -0.478 OA
ATOM     18  H   UNL     1       1.381   6.512  -4.920  1.00  0.00     0.297 HD
ENDBRANCH  15  17
ENDBRANCH   4  15
BRANCH   5  19
ATOM     19  O   UNL     1       2.367   4.313  -1.633  1.00  0.00    -0.507 OA
ATOM     20  H   UNL     1       2.107   4.385  -0.698  1.00  0.00     0.293 HD
ENDBRANCH   5  19
TORSDOF 4
ENDMDL
MODEL 5
REMARK VINA RESULT:    -5.439      4.068      6.309
REMARK INTER + INTRA:          -6.960
REMARK INTER:                  -5.879
REMARK INTRA:                  -1.081
REMARK UNBOUND:                -0.567
REMARK SMILES O=C(O)c1cc(-c2ccc(F)cc2F)ccc1O
REMARK SMILES IDX 6 1 5 2 15 3 4 4 17 5 16 6 7 7 13 8 12 9 8 10 10 11 9 12
REMARK SMILES IDX 14 13 11 14 2 15 1 16 3 17 18 19
REMARK H PARENT 3 18 18 20
ROOT
ATOM      1  C   UNL     1       6.357   9.551  -3.113  1.00  0.00    -0.014 A 
ATOM      2  C   UNL     1       7.699   9.468  -3.484  1.00  0.00     0.028 A 
ATOM      3  C   UNL     1       5.693  10.776  -3.169  1.00  0.00     0.013 A 
ATOM      4  C   UNL     1       8.377  10.610  -3.910  1.00  0.00     0.102 A 
ATOM      5  C   UNL     1       7.712  11.835  -3.966  1.00  0.00     0.130 A 
ATOM      6  C   UNL     1       6.369  11.918  -3.595  1.00  0.00     0.048 A 
ENDROOT
BRANCH   1   7
ATOM      7  C   UNL     1       5.653   8.367  -2.669  1.00  0.00     0.018 A 
ATOM      8  C   UNL     1       5.702   7.985  -1.328  1.00  0.00     0.133 A 
ATOM      9  C   UNL     1       5.022   6.842  -0.905  1.00  0.00     0.079 A 
ATOM     10  C   UNL     1       4.925   7.608  -3.585  1.00  0.00     0.015 A 
ATOM     11  C   UNL     1       4.295   6.083  -1.821  1.00  0.00     0.126 A 
ATOM     12  C   UNL     1       4.246   6.467  -3.161  1.00  0.00     0.040 A 
ATOM     13  F   UNL     1       6.399   8.702  -0.436  1.00  0.00    -0.206 F 
ATOM     14  F   UNL     1       3.642   4.987  -1.415  1.00  0.00    -0.207 F 
ENDBRANCH   1   7
BRANCH   4  15
ATOM     15  C   UNL     1       9.778  10.502  -4.293  1.00  0.00     0.339 C 
ATOM     16  O   UNL     1      10.429  11.375  -4.873  1.00  0.00    -0.246 OA
BRANCH  15  17
ATOM     17  O   UNL     1      10.322   9.306  -3.938  1.00  0.00    -0.478 OA
ATOM     18  H   UNL     1      10.559   8.767  -4.721  1.00  0.00     0.297 HD
ENDBRANCH  15  17
ENDBRANCH   4  15
BRANCH   5  19
ATOM     19  O   UNL     1       8.357  12.963  -4.380  1.00  0.00    -0.507 OA
ATOM     20  H   UNL     1       9.317  12.809  -4.349  1.00  0.00     0.293 HD
ENDBRANCH   5  19
TORSDOF 4
ENDMDL
MODEL 6
REMARK VINA RESULT:    -5.415      4.390      6.717
REMARK INTER + INTRA:          -6.932
REMARK INTER:                  -5.870
REMARK INTRA:                  -1.061
REMARK UNBOUND:                -0.567
REMARK SMILES O=C(O)c1cc(-c2ccc(F)cc2F)ccc1O
REMARK SMILES IDX 6 1 5 2 15 3 4 4 17 5 16 6 7 7 13 8 12 9 8 10 10 11 9 12
REMARK SMILES IDX 14 13 11 14 2 15 1 16 3 17 18 19
REMARK H PARENT 3 18 18 20
ROOT
ATOM      1  C   UNL     1       6.294   9.647  -3.241  1.00  0.00    -0.014 A 
ATOM      2  C   UNL     1       5.741  10.926  -3.301  1.00  0.00     0.028 A 
ATOM      3  C   UNL     1       7.638   9.453  -3.559  1.00  0.00     0.013 A 
ATOM      4  C   UNL     1       6.531  12.011  -3.679  1.00  0.00     0.102 A 
ATOM      5  C   UNL     1       7.875  11.817  -3.998  1.00  0.00     0.130 A 
ATOM      6  C   UNL     1       8.429  10.537  -3.938  1.00  0.00     0.048 A 
ENDROOT
BRANCH   1   7
ATOM      7  C   UNL     1       5.474   8.521  -2.849  1.00  0.00     0.018 A 
ATOM      8  C   UNL     1       5.508   8.053  -1.535  1.00  0.00     0.133 A 
ATOM      9  C   UNL     1       4.716   6.966  -1.162  1.00  0.00     0.079 A 
ATOM     10  C   UNL     1       4.648   7.904  -3.788  1.00  0.00     0.015 A 
ATOM     11  C   UNL     1       3.891   6.349  -2.101  1.00  0.00     0.126 A 
ATOM     12  C   UNL     1       3.857   6.818  -3.414  1.00  0.00     0.040 A 
ATOM     13  F   UNL     1       6.298   8.633  -0.621  1.00  0.00    -0.206 F 
ATOM     14  F   UNL     1       3.131   5.306  -1.744  1.00  0.00    -0.207 F 
ENDBRANCH   1   7
BRANCH   4  15
ATOM     15  C   UNL     1       5.934  13.339  -3.736  1.00  0.00     0.339 C 
ATOM     16  O   UNL     1       6.559  14.402  -3.733  1.00  0.00    -0.246 OA
BRANCH  15  17
ATOM     17  O   UNL     1       4.575  13.294  -3.795  1.00  0.00    -0.478 OA
ATOM     18  H   UNL     1       4.209  12.590  -3.220  1.00  0.00     0.297 HD
ENDBRANCH  15  17
ENDBRANCH   4  15
BRANCH   5  19
ATOM     19  O   UNL     1       8.665  12.864  -4.370  1.00  0.00    -0.507 OA
ATOM     20  H   UNL     1       9.589  12.661  -4.142  1.00  0.00     0.293 HD
ENDBRANCH   5  19
TORSDOF 4
ENDMDL
MODEL 7
REMARK VINA RESULT:    -4.339      6.325      8.617
REMARK INTER + INTRA:          -5.667
REMARK INTER:                  -5.018
REMARK INTRA:                  -0.649
REMARK UNBOUND:                -0.567
REMARK SMILES O=C(O)c1cc(-c2ccc(F)cc2F)ccc1O
REMARK SMILES IDX 6 1 5 2 15 3 4 4 17 5 16 6 7 7 13 8 12 9 8 10 10 11 9 12
REMARK SMILES IDX 14 13 11 14 2 15 1 16 3 17 18 19
REMARK H PARENT 3 18 18 20
ROOT
ATOM      1  C   UNL     1       6.127  13.451  -3.698  1.00  0.00    -0.014 A 
ATOM      2  C   UNL     1       6.704  14.172  -4.743  1.00  0.00     0.028 A 
ATOM      3  C   UNL     1       5.342  14.106  -2.749  1.00  0.00     0.013 A 
ATOM      4  C   UNL     1       6.496  15.548  -4.840  1.00  0.00     0.102 A 
ATOM      5  C   UNL     1       5.712  16.203  -3.891  1.00  0.00     0.130 A 
ATOM      6  C   UNL     1       5.134  15.482  -2.845  1.00  0.00     0.048 A 
ENDROOT
BRANCH   1   7
ATOM      7  C   UNL     1       6.343  12.024  -3.596  1.00  0.00     0.018 A 
ATOM      8  C   UNL     1       7.611  11.489  -3.825  1.00  0.00     0.133 A 
ATOM      9  C   UNL     1       7.815  10.113  -3.727  1.00  0.00     0.079 A 
ATOM     10  C   UNL     1       5.280  11.183  -3.267  1.00  0.00     0.015 A 
ATOM     11  C   UNL     1       6.752   9.272  -3.399  1.00  0.00     0.126 A 
ATOM     12  C   UNL     1       5.485   9.807  -3.168  1.00  0.00     0.040 A 
ATOM     13  F   UNL     1       8.643  12.284  -4.145  1.00  0.00    -0.206 F 
ATOM     14  F   UNL     1       6.947   7.950  -3.304  1.00  0.00    -0.207 F 
ENDBRANCH   1   7
BRANCH   4  15
ATOM     15  C   UNL     1       7.107  16.283  -5.939  1.00  0.00     0.339 C 
ATOM     16  O   UNL     1       6.799  17.423  -6.294  1.00  0.00    -0.246 OA
BRANCH  15  17
ATOM     17  O   UNL     1       8.086  15.569  -6.559  1.00  0.00    -0.478 OA
ATOM     18  H   UNL     1       7.769  14.686  -6.843  1.00  0.00     0.297 HD
ENDBRANCH  15  17
ENDBRANCH   4  15
BRANCH   5  19
ATOM     19  O   UNL     1       5.496  17.547  -3.967  1.00  0.00    -0.507 OA
ATOM     20  H   UNL     1       5.995  17.906  -4.722  1.00  0.00     0.293 HD
ENDBRANCH   5  19
TORSDOF 4
ENDMDL
MODEL 8
REMARK VINA RESULT:    -3.966      4.789      6.548
REMARK INTER + INTRA:          -5.228
REMARK INTER:                  -4.421
REMARK INTRA:                  -0.807
REMARK UNBOUND:                -0.567
REMARK SMILES O=C(O)c1cc(-c2ccc(F)cc2F)ccc1O
REMARK SMILES IDX 6 1 5 2 15 3 4 4 17 5 16 6 7 7 13 8 12 9 8 10 10 11 9 12
REMARK SMILES IDX 14 13 11 14 2 15 1 16 3 17 18 19
REMARK H PARENT 3 18 18 20
ROOT
ATOM      1  C   UNL     1       6.349  12.878  -3.785  1.00  0.00    -0.014 A 
ATOM      2  C   UNL     1       7.622  12.347  -3.983  1.00  0.00     0.028 A 
ATOM      3  C   UNL     1       5.270  12.030  -3.538  1.00  0.00     0.013 A 
ATOM      4  C   UNL     1       7.818  10.966  -3.934  1.00  0.00     0.102 A 
ATOM      5  C   UNL     1       6.739  10.118  -3.687  1.00  0.00     0.130 A 
ATOM      6  C   UNL     1       5.464  10.650  -3.489  1.00  0.00     0.048 A 
ENDROOT
BRANCH   1   7
ATOM      7  C   UNL     1       6.145  14.310  -3.837  1.00  0.00     0.018 A 
ATOM      8  C   UNL     1       5.535  14.970  -2.769  1.00  0.00     0.133 A 
ATOM      9  C   UNL     1       5.340  16.350  -2.824  1.00  0.00     0.079 A 
ATOM     10  C   UNL     1       6.561  15.030  -4.957  1.00  0.00     0.015 A 
ATOM     11  C   UNL     1       5.755  17.070  -3.944  1.00  0.00     0.126 A 
ATOM     12  C   UNL     1       6.366  16.409  -5.010  1.00  0.00     0.040 A 
ATOM     13  F   UNL     1       5.127  14.292  -1.687  1.00  0.00    -0.206 F 
ATOM     14  F   UNL     1       5.569  18.395  -3.996  1.00  0.00    -0.207 F 
ENDBRANCH   1   7
BRANCH   4  15
ATOM     15  C   UNL     1       9.156  10.431  -4.144  1.00  0.00     0.339 C 
ATOM     16  O   UNL     1       9.516   9.282  -3.874  1.00  0.00    -0.246 OA
BRANCH  15  17
ATOM     17  O   UNL     1      10.003  11.348  -4.685  1.00  0.00    -0.478 OA
ATOM     18  H   UNL     1      10.926  11.217  -4.381  1.00  0.00     0.297 HD
ENDBRANCH  15  17
ENDBRANCH   4  15
BRANCH   5  19
ATOM     19  O   UNL     1       6.909   8.766  -3.635  1.00  0.00    -0.507 OA
ATOM     20  H   UNL     1       7.217   8.519  -2.746  1.00  0.00     0.293 HD
ENDBRANCH   5  19
TORSDOF 4
ENDMDL
