MODEL 1
REMARK VINA RESULT:    -6.839      0.000      0.000
REMARK INTER + INTRA:          -8.655
REMARK INTER:                  -8.039
REMARK INTRA:                  -0.616
REMARK UNBOUND:                -0.616
REMARK SMILES O=C(O)c1cc(-c2ccc(F)cc2F)ccc1O
REMARK SMILES IDX 6 1 5 2 15 3 4 4 17 5 16 6 7 7 13 8 12 9 8 10 10 11 9 12
REMARK SMILES IDX 14 13 11 14 2 15 1 16 3 17 18 19
REMARK H PARENT 3 18 18 20
ROOT
ATOM      1  C   UNL     1       5.639  -1.513  -4.219  1.00  0.00    -0.014 A 
ATOM      2  C   UNL     1       4.702  -0.483  -4.147  1.00  0.00     0.028 A 
ATOM      3  C   UNL     1       5.515  -2.628  -3.389  1.00  0.00     0.013 A 
ATOM      4  C   UNL     1       3.640  -0.567  -3.246  1.00  0.00     0.102 A 
ATOM      5  C   UNL     1       3.516  -1.681  -2.416  1.00  0.00     0.130 A 
ATOM      6  C   UNL     1       4.454  -2.712  -2.488  1.00  0.00     0.048 A 
ENDROOT
BRANCH   1   7
ATOM      7  C   UNL     1       6.741  -1.427  -5.153  1.00  0.00     0.018 A 
ATOM      8  C   UNL     1       6.510  -1.046  -6.475  1.00  0.00     0.133 A 
ATOM      9  C   UNL     1       7.576  -0.964  -7.372  1.00  0.00     0.079 A 
ATOM     10  C   UNL     1       8.035  -1.724  -4.728  1.00  0.00     0.015 A 
ATOM     11  C   UNL     1       8.870  -1.262  -6.948  1.00  0.00     0.126 A 
ATOM     12  C   UNL     1       9.100  -1.641  -5.625  1.00  0.00     0.040 A 
ATOM     13  F   UNL     1       5.272  -0.760  -6.900  1.00  0.00    -0.206 F 
ATOM     14  F   UNL     1       9.893  -1.183  -7.808  1.00  0.00    -0.207 F 
ENDBRANCH   1   7
BRANCH   4  15
ATOM     15  C   UNL     1       2.672   0.520  -3.187  1.00  0.00     0.339 C 
ATOM     16  O   UNL     1       2.307   1.095  -2.159  1.00  0.00    -0.246 OA
BRANCH  15  17
ATOM     17  O   UNL     1       2.192   0.853  -4.415  1.00  0.00    -0.478 OA
ATOM     18  H   UNL     1       1.212   0.887  -4.427  1.00  0.00     0.297 HD
ENDBRANCH  15  17
ENDBRANCH   4  15
BRANCH   5  19
ATOM     19  O   UNL     1       2.486  -1.782  -1.529  1.00  0.00    -0.507 OA
ATOM     20  H   UNL     1       2.845  -1.985  -0.648  1.00  0.00     0.293 HD
ENDBRANCH   5  19
TORSDOF 4
ENDMDL
MODEL 2
REMARK VINA RESULT:    -6.796      1.380      2.834
REMARK INTER + INTRA:          -8.604
REMARK INTER:                  -7.991
REMARK INTRA:                  -0.613
REMARK UNBOUND:                -0.616
REMARK SMILES O=C(O)c1cc(-c2ccc(F)cc2F)ccc1O
REMARK SMILES IDX 6 1 5 2 15 3 4 4 17 5 16 6 7 7 13 8 12 9 8 10 10 11 9 12
REMARK SMILES IDX 14 13 11 14 2 15 1 16 3 17 18 19
REMARK H PARENT 3 18 18 20
ROOT
ATOM      1  C   UNL     1       5.750  -1.585  -4.090  1.00  0.00    -0.014 A 
ATOM      2  C   UNL     1       5.731  -2.738  -3.307  1.00  0.00     0.028 A 
ATOM      3  C   UNL     1       4.754  -0.620  -3.936  1.00  0.00     0.013 A 
ATOM      4  C   UNL     1       4.716  -2.928  -2.368  1.00  0.00     0.102 A 
ATOM      5  C   UNL     1       3.720  -1.963  -2.214  1.00  0.00     0.130 A 
ATOM      6  C   UNL     1       3.739  -0.809  -2.998  1.00  0.00     0.048 A 
ENDROOT
BRANCH   1   7
ATOM      7  C   UNL     1       6.802  -1.388  -5.064  1.00  0.00     0.018 A 
ATOM      8  C   UNL     1       6.488  -0.984  -6.362  1.00  0.00     0.133 A 
ATOM      9  C   UNL     1       7.505  -0.796  -7.299  1.00  0.00     0.079 A 
ATOM     10  C   UNL     1       8.132  -1.601  -4.702  1.00  0.00     0.015 A 
ATOM     11  C   UNL     1       8.834  -1.010  -6.937  1.00  0.00     0.126 A 
ATOM     12  C   UNL     1       9.148  -1.412  -5.639  1.00  0.00     0.040 A 
ATOM     13  F   UNL     1       5.214  -0.778  -6.727  1.00  0.00    -0.206 F 
ATOM     14  F   UNL     1       9.811  -0.830  -7.835  1.00  0.00    -0.207 F 
ENDBRANCH   1   7
BRANCH   4  15
ATOM     15  C   UNL     1       4.714  -4.139  -1.560  1.00  0.00     0.339 C 
ATOM     16  O   UNL     1       3.750  -4.893  -1.406  1.00  0.00    -0.246 OA
BRANCH  15  17
ATOM     17  O   UNL     1       5.918  -4.371  -0.970  1.00  0.00    -0.478 OA
ATOM     18  H   UNL     1       6.014  -3.875  -0.130  1.00  0.00     0.297 HD
ENDBRANCH  15  17
ENDBRANCH   4  15
BRANCH   5  19
ATOM     19  O   UNL     1       2.720  -2.129  -1.303  1.00  0.00    -0.507 OA
ATOM     20  H   UNL     1       3.006  -2.773  -0.632  1.00  0.00     0.293 HD
ENDBRANCH   5  19
TORSDOF 4
ENDMDL
MODEL 3
REMARK VINA RESULT:    -5.039      4.569      6.877
REMARK INTER + INTRA:          -6.539
REMARK INTER:                  -5.455
REMARK INTRA:                  -1.084
REMARK UNBOUND:                -0.616
REMARK SMILES O=C(O)c1cc(-c2ccc(F)cc2F)ccc1O
REMARK SMILES IDX 6 1 5 2 15 3 4 4 17 5 16 6 7 7 13 8 12 9 8 10 10 11 9 12
REMARK SMILES IDX 14 13 11 14 2 15 1 16 3 17 18 19
REMARK H PARENT 3 18 18 20
ROOT
ATOM      1  C   UNL     1       7.666  -1.541  -5.587  1.00  0.00    -0.014 A 
ATOM      2  C   UNL     1       8.259  -2.569  -6.319  1.00  0.00     0.028 A 
ATOM      3  C   UNL     1       8.027  -0.215  -5.828  1.00  0.00     0.013 A 
ATOM      4  C   UNL     1       9.214  -2.272  -7.292  1.00  0.00     0.102 A 
ATOM      5  C   UNL     1       9.575  -0.947  -7.533  1.00  0.00     0.130 A 
ATOM      6  C   UNL     1       8.982   0.082  -6.801  1.00  0.00     0.048 A 
ENDROOT
BRANCH   1   7
ATOM      7  C   UNL     1       6.677  -1.848  -4.577  1.00  0.00     0.018 A 
ATOM      8  C   UNL     1       7.075  -2.137  -3.271  1.00  0.00     0.133 A 
ATOM      9  C   UNL     1       6.118  -2.433  -2.300  1.00  0.00     0.079 A 
ATOM     10  C   UNL     1       5.323  -1.853  -4.911  1.00  0.00     0.015 A 
ATOM     11  C   UNL     1       4.764  -2.439  -2.634  1.00  0.00     0.126 A 
ATOM     12  C   UNL     1       4.367  -2.149  -3.940  1.00  0.00     0.040 A 
ATOM     13  F   UNL     1       8.373  -2.139  -2.935  1.00  0.00    -0.206 F 
ATOM     14  F   UNL     1       3.845  -2.723  -1.703  1.00  0.00    -0.207 F 
ENDBRANCH   1   7
BRANCH   4  15
ATOM     15  C   UNL     1       9.822  -3.360  -8.046  1.00  0.00     0.339 C 
ATOM     16  O   UNL     1      10.723  -3.236  -8.879  1.00  0.00    -0.246 OA
BRANCH  15  17
ATOM     17  O   UNL     1       9.284  -4.571  -7.733  1.00  0.00    -0.478 OA
ATOM     18  H   UNL     1       8.320  -4.509  -7.565  1.00  0.00     0.297 HD
ENDBRANCH  15  17
ENDBRANCH   4  15
BRANCH   5  19
ATOM     19  O   UNL     1      10.505  -0.636  -8.480  1.00  0.00    -0.507 OA
ATOM     20  H   UNL     1      11.000  -1.440  -8.715  1.00  0.00     0.293 HD
ENDBRANCH   5  19
TORSDOF 4
ENDMDL
MODEL 4
REMARK VINA RESULT:    -5.029      3.989      6.242
REMARK INTER + INTRA:          -6.527
REMARK INTER:                  -5.444
REMARK INTRA:                  -1.083
REMARK UNBOUND:                -0.616
REMARK SMILES O=C(O)c1cc(-c2ccc(F)cc2F)ccc1O
REMARK SMILES IDX 6 1 5 2 15 3 4 4 17 5 16 6 7 7 13 8 12 9 8 10 10 11 9 12
REMARK SMILES IDX 14 13 11 14 2 15 1 16 3 17 18 19
REMARK H PARENT 3 18 18 20
ROOT
ATOM      1  C   UNL     1       7.360  -1.098  -5.900  1.00  0.00    -0.014 A 
ATOM      2  C   UNL     1       7.992   0.096  -6.245  1.00  0.00     0.028 A 
ATOM      3  C   UNL     1       7.835  -2.309  -6.402  1.00  0.00     0.013 A 
ATOM      4  C   UNL     1       9.100   0.079  -7.093  1.00  0.00     0.102 A 
ATOM      5  C   UNL     1       9.576  -1.133  -7.595  1.00  0.00     0.130 A 
ATOM      6  C   UNL     1       8.943  -2.327  -7.249  1.00  0.00     0.048 A 
ENDROOT
BRANCH   1   7
ATOM      7  C   UNL     1       6.210  -1.081  -5.021  1.00  0.00     0.018 A 
ATOM      8  C   UNL     1       4.929  -0.907  -5.548  1.00  0.00     0.133 A 
ATOM      9  C   UNL     1       3.823  -0.891  -4.697  1.00  0.00     0.079 A 
ATOM     10  C   UNL     1       6.384  -1.240  -3.647  1.00  0.00     0.015 A 
ATOM     11  C   UNL     1       3.998  -1.049  -3.323  1.00  0.00     0.126 A 
ATOM     12  C   UNL     1       5.278  -1.224  -2.798  1.00  0.00     0.040 A 
ATOM     13  F   UNL     1       4.745  -0.751  -6.866  1.00  0.00    -0.206 F 
ATOM     14  F   UNL     1       2.936  -1.034  -2.506  1.00  0.00    -0.207 F 
ENDBRANCH   1   7
BRANCH   4  15
ATOM     15  C   UNL     1       9.747   1.337  -7.441  1.00  0.00     0.339 C 
ATOM     16  O   UNL     1      10.709   1.457  -8.204  1.00  0.00    -0.246 OA
BRANCH  15  17
ATOM     17  O   UNL     1       9.169   2.404  -6.826  1.00  0.00    -0.478 OA
ATOM     18  H   UNL     1       8.213   2.260  -6.668  1.00  0.00     0.297 HD
ENDBRANCH  15  17
ENDBRANCH   4  15
BRANCH   5  19
ATOM     19  O   UNL     1      10.657  -1.171  -8.424  1.00  0.00    -0.507 OA
ATOM     20  H   UNL     1      11.420  -0.773  -7.969  1.00  0.00     0.293 HD
ENDBRANCH   5  19
TORSDOF 4
ENDMDL
MODEL 5
REMARK VINA RESULT:    -4.932      4.130      6.407
REMARK INTER + INTRA:          -6.414
REMARK INTER:                  -5.352
REMARK INTRA:                  -1.062
REMARK UNBOUND:                -0.616
REMARK SMILES O=C(O)c1cc(-c2ccc(F)cc2F)ccc1O
REMARK SMILES IDX 6 1 5 2 15 3 4 4 17 5 16 6 7 7 13 8 12 9 8 10 10 11 9 12
REMARK SMILES IDX 14 13 11 14 2 15 1 16 3 17 18 19
REMARK H PARENT 3 18 18 20
ROOT
ATOM      1  C   UNL     1       7.735  -1.310  -5.743  1.00  0.00    -0.014 A 
ATOM      2  C   UNL     1       8.146  -0.006  -6.015  1.00  0.00     0.028 A 
ATOM      3  C   UNL     1       8.309  -2.381  -6.428  1.00  0.00     0.013 A 
ATOM      4  C   UNL     1       9.132   0.229  -6.974  1.00  0.00     0.102 A 
ATOM      5  C   UNL     1       9.707  -0.842  -7.659  1.00  0.00     0.130 A 
ATOM      6  C   UNL     1       9.295  -2.147  -7.386  1.00  0.00     0.048 A 
ENDROOT
BRANCH   1   7
ATOM      7  C   UNL     1       6.711  -1.555  -4.750  1.00  0.00     0.018 A 
ATOM      8  C   UNL     1       7.067  -1.930  -3.454  1.00  0.00     0.133 A 
ATOM      9  C   UNL     1       6.076  -2.164  -2.500  1.00  0.00     0.079 A 
ATOM     10  C   UNL     1       5.366  -1.413  -5.091  1.00  0.00     0.015 A 
ATOM     11  C   UNL     1       4.732  -2.024  -2.841  1.00  0.00     0.126 A 
ATOM     12  C   UNL     1       4.377  -1.648  -4.137  1.00  0.00     0.040 A 
ATOM     13  F   UNL     1       8.355  -2.073  -3.111  1.00  0.00    -0.206 F 
ATOM     14  F   UNL     1       3.780  -2.249  -1.926  1.00  0.00    -0.207 F 
ENDBRANCH   1   7
BRANCH   4  15
ATOM     15  C   UNL     1       9.548   1.598  -7.243  1.00  0.00     0.339 C 
ATOM     16  O   UNL     1      10.174   1.971  -8.239  1.00  0.00    -0.246 OA
BRANCH  15  17
ATOM     17  O   UNL     1       9.168   2.458  -6.260  1.00  0.00    -0.478 OA
ATOM     18  H   UNL     1       8.196   2.581  -6.239  1.00  0.00     0.297 HD
ENDBRANCH  15  17
ENDBRANCH   4  15
BRANCH   5  19
ATOM     19  O   UNL     1      10.673  -0.634  -8.599  1.00  0.00    -0.507 OA
ATOM     20  H   UNL     1      10.484  -1.188  -9.375  1.00  0.00     0.293 HD
ENDBRANCH   5  19
TORSDOF 4
ENDMDL
MODEL 6
REMARK VINA RESULT:    -4.923      4.353      6.670
REMARK INTER + INTRA:          -6.403
REMARK INTER:                  -5.336
REMARK INTRA:                  -1.067
REMARK UNBOUND:                -0.616
REMARK SMILES O=C(O)c1cc(-c2ccc(F)cc2F)ccc1O
REMARK SMILES IDX 6 1 5 2 15 3 4 4 17 5 16 6 7 7 13 8 12 9 8 10 10 11 9 12
REMARK SMILES IDX 14 13 11 14 2 15 1 16 3 17 18 19
REMARK H PARENT 3 18 18 20
ROOT
ATOM      1  C   UNL     1       7.616  -1.303  -5.795  1.00  0.00    -0.014 A 
ATOM      2  C   UNL     1       8.145  -2.413  -6.452  1.00  0.00     0.028 A 
ATOM      3  C   UNL     1       8.117  -0.029  -6.064  1.00  0.00     0.013 A 
ATOM      4  C   UNL     1       9.176  -2.251  -7.378  1.00  0.00     0.102 A 
ATOM      5  C   UNL     1       9.677  -0.977  -7.647  1.00  0.00     0.130 A 
ATOM      6  C   UNL     1       9.147   0.134  -6.989  1.00  0.00     0.048 A 
ENDROOT
BRANCH   1   7
ATOM      7  C   UNL     1       6.548  -1.471  -4.833  1.00  0.00     0.018 A 
ATOM      8  C   UNL     1       5.222  -1.259  -5.214  1.00  0.00     0.133 A 
ATOM      9  C   UNL     1       4.196  -1.422  -4.284  1.00  0.00     0.079 A 
ATOM     10  C   UNL     1       6.846  -1.848  -3.524  1.00  0.00     0.015 A 
ATOM     11  C   UNL     1       4.494  -1.797  -2.975  1.00  0.00     0.126 A 
ATOM     12  C   UNL     1       5.819  -2.011  -2.595  1.00  0.00     0.040 A 
ATOM     13  F   UNL     1       4.919  -0.894  -6.468  1.00  0.00    -0.206 F 
ATOM     14  F   UNL     1       3.509  -1.954  -2.081  1.00  0.00    -0.207 F 
ENDBRANCH   1   7
BRANCH   4  15
ATOM     15  C   UNL     1       9.715  -3.423  -8.054  1.00  0.00     0.339 C 
ATOM     16  O   UNL     1      10.623  -3.411  -8.888  1.00  0.00    -0.246 OA
BRANCH  15  17
ATOM     17  O   UNL     1       9.101  -4.573  -7.664  1.00  0.00    -0.478 OA
ATOM     18  H   UNL     1       8.989  -5.198  -8.412  1.00  0.00     0.297 HD
ENDBRANCH  15  17
ENDBRANCH   4  15
BRANCH   5  19
ATOM     19  O   UNL     1      10.683  -0.796  -8.548  1.00  0.00    -0.507 OA
ATOM     20  H   UNL     1      11.410  -0.312  -8.120  1.00  0.00     0.293 HD
ENDBRANCH   5  19
TORSDOF 4
ENDMDL
MODEL 7
REMARK VINA RESULT:    -4.530      8.992     11.454
REMARK INTER + INTRA:          -5.941
REMARK INTER:                  -4.886
REMARK INTRA:                  -1.055
REMARK UNBOUND:                -0.616
REMARK SMILES O=C(O)c1cc(-c2ccc(F)cc2F)ccc1O
REMARK SMILES IDX 6 1 5 2 15 3 4 4 17 5 16 6 7 7 13 8 12 9 8 10 10 11 9 12
REMARK SMILES IDX 14 13 11 14 2 15 1 16 3 17 18 19
REMARK H PARENT 3 18 18 20
ROOT
ATOM      1  C   UNL     1      10.541  -5.984 -11.505  1.00  0.00    -0.014 A 
ATOM      2  C   UNL     1      10.882  -7.330 -11.384  1.00  0.00     0.028 A 
ATOM      3  C   UNL     1      10.389  -5.413 -12.768  1.00  0.00     0.013 A 
ATOM      4  C   UNL     1      11.070  -8.107 -12.528  1.00  0.00     0.102 A 
ATOM      5  C   UNL     1      10.918  -7.537 -13.791  1.00  0.00     0.130 A 
ATOM      6  C   UNL     1      10.577  -6.189 -13.912  1.00  0.00     0.048 A 
ENDROOT
BRANCH   1   7
ATOM      7  C   UNL     1      10.347  -5.177 -10.319  1.00  0.00     0.018 A 
ATOM      8  C   UNL     1      11.408  -4.440  -9.791  1.00  0.00     0.133 A 
ATOM      9  C   UNL     1      11.216  -3.664  -8.648  1.00  0.00     0.079 A 
ATOM     10  C   UNL     1       9.095  -5.135  -9.706  1.00  0.00     0.015 A 
ATOM     11  C   UNL     1       9.965  -3.623  -8.034  1.00  0.00     0.126 A 
ATOM     12  C   UNL     1       8.904  -4.359  -8.564  1.00  0.00     0.040 A 
ATOM     13  F   UNL     1      12.618  -4.471 -10.368  1.00  0.00    -0.206 F 
ATOM     14  F   UNL     1       9.780  -2.878  -6.937  1.00  0.00    -0.207 F 
ENDBRANCH   1   7
BRANCH   4  15
ATOM     15  C   UNL     1      11.425  -9.512 -12.380  1.00  0.00     0.339 C 
ATOM     16  O   UNL     1      12.168 -10.144 -13.136  1.00  0.00    -0.246 OA
BRANCH  15  17
ATOM     17  O   UNL     1      10.841 -10.083 -11.292  1.00  0.00    -0.478 OA
ATOM     18  H   UNL     1      11.267  -9.796 -10.457  1.00  0.00     0.297 HD
ENDBRANCH  15  17
ENDBRANCH   4  15
BRANCH   5  19
ATOM     19  O   UNL     1      11.097  -8.279 -14.921  1.00  0.00    -0.507 OA
ATOM     20  H   UNL     1      11.244  -7.680 -15.674  1.00  0.00     0.293 HD
ENDBRANCH   5  19
TORSDOF 4
ENDMDL
MODEL 8
REMARK VINA RESULT:    -4.123      3.684      6.100
REMARK INTER + INTRA:          -5.462
REMARK INTER:                  -4.791
REMARK INTRA:                  -0.672
REMARK UNBOUND:                -0.616
REMARK SMILES O=C(O)c1cc(-c2ccc(F)cc2F)ccc1O
REMARK SMILES IDX 6 1 5 2 15 3 4 4 17 5 16 6 7 7 13 8 12 9 8 10 10 11 9 12
REMARK SMILES IDX 14 13 11 14 2 15 1 16 3 17 18 19
REMARK H PARENT 3 18 18 20
ROOT
ATOM      1  C   UNL     1       6.193  -1.710  -3.806  1.00  0.00    -0.014 A 
ATOM      2  C   UNL     1       6.115  -1.189  -5.097  1.00  0.00     0.028 A 
ATOM      3  C   UNL     1       7.425  -2.109  -3.288  1.00  0.00     0.013 A 
ATOM      4  C   UNL     1       7.269  -1.067  -5.871  1.00  0.00     0.102 A 
ATOM      5  C   UNL     1       8.502  -1.466  -5.353  1.00  0.00     0.130 A 
ATOM      6  C   UNL     1       8.580  -1.987  -4.061  1.00  0.00     0.048 A 
ENDROOT
BRANCH   1   7
ATOM      7  C   UNL     1       4.996  -1.839  -3.003  1.00  0.00     0.018 A 
ATOM      8  C   UNL     1       4.763  -3.006  -2.275  1.00  0.00     0.133 A 
ATOM      9  C   UNL     1       3.607  -3.126  -1.502  1.00  0.00     0.079 A 
ATOM     10  C   UNL     1       4.076  -0.792  -2.957  1.00  0.00     0.015 A 
ATOM     11  C   UNL     1       2.687  -2.080  -1.457  1.00  0.00     0.126 A 
ATOM     12  C   UNL     1       2.921  -0.912  -2.184  1.00  0.00     0.040 A 
ATOM     13  F   UNL     1       5.636  -4.022  -2.310  1.00  0.00    -0.206 F 
ATOM     14  F   UNL     1       1.577  -2.194  -0.716  1.00  0.00    -0.207 F 
ENDBRANCH   1   7
BRANCH   4  15
ATOM     15  C   UNL     1       7.167  -0.520  -7.217  1.00  0.00     0.339 C 
ATOM     16  O   UNL     1       6.247  -0.740  -8.008  1.00  0.00    -0.246 OA
BRANCH  15  17
ATOM     17  O   UNL     1       8.218   0.286  -7.530  1.00  0.00    -0.478 OA
ATOM     18  H   UNL     1       8.186   0.579  -8.465  1.00  0.00     0.297 HD
ENDBRANCH  15  17
ENDBRANCH   4  15
BRANCH   5  19
ATOM     19  O   UNL     1       9.641  -1.354  -6.092  1.00  0.00    -0.507 OA
ATOM     20  H   UNL     1      10.358  -1.026  -5.523  1.00  0.00     0.293 HD
ENDBRANCH   5  19
TORSDOF 4
ENDMDL
MODEL 9
REMARK VINA RESULT:    -4.122      3.797      6.243
REMARK INTER + INTRA:          -5.461
REMARK INTER:                  -4.797
REMARK INTRA:                  -0.663
REMARK UNBOUND:                -0.616
REMARK SMILES O=C(O)c1cc(-c2ccc(F)cc2F)ccc1O
REMARK SMILES IDX 6 1 5 2 15 3 4 4 17 5 16 6 7 7 13 8 12 9 8 10 10 11 9 12
REMARK SMILES IDX 14 13 11 14 2 15 1 16 3 17 18 19
REMARK H PARENT 3 18 18 20
ROOT
ATOM      1  C   UNL     1       5.399  -1.368  -4.648  1.00  0.00    -0.014 A 
ATOM      2  C   UNL     1       6.735  -1.724  -4.469  1.00  0.00     0.028 A 
ATOM      3  C   UNL     1       4.971  -0.863  -5.876  1.00  0.00     0.013 A 
ATOM      4  C   UNL     1       7.644  -1.575  -5.516  1.00  0.00     0.102 A 
ATOM      5  C   UNL     1       7.216  -1.070  -6.744  1.00  0.00     0.130 A 
ATOM      6  C   UNL     1       5.879  -0.714  -6.924  1.00  0.00     0.048 A 
ENDROOT
BRANCH   1   7
ATOM      7  C   UNL     1       4.456  -1.522  -3.562  1.00  0.00     0.018 A 
ATOM      8  C   UNL     1       3.540  -0.507  -3.280  1.00  0.00     0.133 A 
ATOM      9  C   UNL     1       2.633  -0.658  -2.231  1.00  0.00     0.079 A 
ATOM     10  C   UNL     1       4.462  -2.687  -2.796  1.00  0.00     0.015 A 
ATOM     11  C   UNL     1       2.640  -1.823  -1.465  1.00  0.00     0.126 A 
ATOM     12  C   UNL     1       3.555  -2.838  -1.748  1.00  0.00     0.040 A 
ATOM     13  F   UNL     1       3.523   0.621  -4.005  1.00  0.00    -0.206 F 
ATOM     14  F   UNL     1       1.770  -1.970  -0.458  1.00  0.00    -0.207 F 
ENDBRANCH   1   7
BRANCH   4  15
ATOM     15  C   UNL     1       9.035  -1.953  -5.308  1.00  0.00     0.339 C 
ATOM     16  O   UNL     1       9.676  -1.772  -4.271  1.00  0.00    -0.246 OA
BRANCH  15  17
ATOM     17  O   UNL     1       9.580  -2.548  -6.404  1.00  0.00    -0.478 OA
ATOM     18  H   UNL     1      10.282  -3.187  -6.161  1.00  0.00     0.297 HD
ENDBRANCH  15  17
ENDBRANCH   4  15
BRANCH   5  19
ATOM     19  O   UNL     1       8.088  -0.917  -7.780  1.00  0.00    -0.507 OA
ATOM     20  H   UNL     1       8.848  -0.389  -7.481  1.00  0.00     0.293 HD
ENDBRANCH   5  19
TORSDOF 4
ENDMDL
