MODEL 1
REMARK VINA RESULT:    -4.404      0.000      0.000
REMARK INTER + INTRA:          -6.338
REMARK INTER:                  -5.433
REMARK INTRA:                  -0.904
REMARK UNBOUND:                -0.904
REMARK SMILES Cc1ccc(C(=O)c2cc(O)c(O)c([N+](=O)[O-])c2)cc1
REMARK SMILES IDX 8 1 18 2 9 3 14 4 10 5 12 6 6 7 7 8 5 9 4 10 19 11 3 12
REMARK SMILES IDX 20 13 2 14 1 15 15 16 17 17 16 18 11 19 13 21
REMARK H PARENT 11 20 13 22
ROOT
ATOM      1  C   UNL     1      11.065  -6.705 -12.788  1.00  0.00     0.033 A 
ATOM      2  C   UNL     1      10.871  -7.945 -12.227  1.00  0.00     0.102 A 
ATOM      3  C   UNL     1      12.074  -6.440 -13.683  1.00  0.00     0.063 A 
ATOM      4  C   UNL     1      11.735  -8.981 -12.582  1.00  0.00     0.315 A 
ATOM      5  C   UNL     1      12.939  -7.475 -14.038  1.00  0.00     0.165 A 
ATOM      6  C   UNL     1      12.769  -8.747 -13.488  1.00  0.00     0.237 A 
ENDROOT
BRANCH   1   7
ATOM      7  C   UNL     1      10.140  -5.595 -12.407  1.00  0.00     0.193 C 
ATOM      8  O   UNL     1       9.424  -5.119 -13.302  1.00  0.00    -0.289 OA
BRANCH   7   9
ATOM      9  C   UNL     1      10.060  -5.077 -11.051  1.00  0.00     0.023 A 
ATOM     10  C   UNL     1      11.202  -4.572 -10.429  1.00  0.00     0.012 A 
ATOM     11  C   UNL     1       8.842  -5.084 -10.372  1.00  0.00     0.012 A 
ATOM     12  C   UNL     1      11.126  -4.075  -9.128  1.00  0.00     0.004 A 
ATOM     13  C   UNL     1       8.765  -4.587  -9.070  1.00  0.00     0.004 A 
ATOM     14  C   UNL     1       9.907  -4.082  -8.448  1.00  0.00    -0.051 A 
ATOM     15  C   UNL     1       9.826  -3.552  -7.057  1.00  0.00     0.044 C 
ENDBRANCH   7   9
ENDBRANCH   1   7
BRANCH   4  16
ATOM     16  N   UNL     1      11.547 -10.269 -12.011  1.00  0.00     0.066 N 
ATOM     17  O   UNL     1      10.510 -10.914 -12.299  1.00  0.00    -0.258 OA
ATOM     18  O   UNL     1      12.422 -10.723 -11.237  1.00  0.00    -0.258 OA
ENDBRANCH   4  16
BRANCH   5  19
ATOM     19  O   UNL     1      13.945  -7.232 -14.925  1.00  0.00    -0.504 OA
ATOM     20  H   UNL     1      14.018  -6.276 -15.080  1.00  0.00     0.293 HD
ENDBRANCH   5  19
BRANCH   6  21
ATOM     21  O   UNL     1      13.621  -9.751 -13.844  1.00  0.00    -0.500 OA
ATOM     22  H   UNL     1      14.104 -10.062 -13.062  1.00  0.00     0.294 HD
ENDBRANCH   6  21
TORSDOF 5
ENDMDL
MODEL 2
REMARK VINA RESULT:    -4.294      8.884     12.097
REMARK INTER + INTRA:          -6.202
REMARK INTER:                  -5.438
REMARK INTRA:                  -0.764
REMARK UNBOUND:                -0.904
REMARK SMILES Cc1ccc(C(=O)c2cc(O)c(O)c([N+](=O)[O-])c2)cc1
REMARK SMILES IDX 8 1 18 2 9 3 14 4 10 5 12 6 6 7 7 8 5 9 4 10 19 11 3 12
REMARK SMILES IDX 20 13 2 14 1 15 15 16 17 17 16 18 11 19 13 21
REMARK H PARENT 11 20 13 22
ROOT
ATOM      1  C   UNL     1       5.370  -0.897  -3.511  1.00  0.00     0.033 A 
ATOM      2  C   UNL     1       5.631  -2.104  -2.906  1.00  0.00     0.102 A 
ATOM      3  C   UNL     1       4.162  -0.251  -3.397  1.00  0.00     0.063 A 
ATOM      4  C   UNL     1       4.627  -2.699  -2.142  1.00  0.00     0.315 A 
ATOM      5  C   UNL     1       3.157  -0.846  -2.634  1.00  0.00     0.165 A 
ATOM      6  C   UNL     1       3.389  -2.070  -2.006  1.00  0.00     0.237 A 
ENDROOT
BRANCH   1   7
ATOM      7  C   UNL     1       6.446  -0.260  -4.329  1.00  0.00     0.193 C 
ATOM      8  O   UNL     1       6.610   0.963  -4.200  1.00  0.00    -0.289 OA
BRANCH   7   9
ATOM      9  C   UNL     1       7.281  -1.019  -5.246  1.00  0.00     0.023 A 
ATOM     10  C   UNL     1       6.954  -1.077  -6.601  1.00  0.00     0.012 A 
ATOM     11  C   UNL     1       8.408  -1.689  -4.771  1.00  0.00     0.012 A 
ATOM     12  C   UNL     1       7.755  -1.805  -7.481  1.00  0.00     0.004 A 
ATOM     13  C   UNL     1       9.210  -2.417  -5.651  1.00  0.00     0.004 A 
ATOM     14  C   UNL     1       8.884  -2.475  -7.006  1.00  0.00    -0.051 A 
ATOM     15  C   UNL     1       9.739  -3.254  -7.946  1.00  0.00     0.044 C 
ENDBRANCH   7   9
ENDBRANCH   1   7
BRANCH   4  16
ATOM     16  N   UNL     1       4.882  -3.947  -1.510  1.00  0.00     0.066 N 
ATOM     17  O   UNL     1       3.950  -4.781  -1.416  1.00  0.00    -0.258 OA
ATOM     18  O   UNL     1       6.031  -4.177  -1.066  1.00  0.00    -0.258 OA
ENDBRANCH   4  16
BRANCH   5  19
ATOM     19  O   UNL     1       1.953  -0.220  -2.510  1.00  0.00    -0.504 OA
ATOM     20  H   UNL     1       1.640   0.062  -3.385  1.00  0.00     0.293 HD
ENDBRANCH   5  19
BRANCH   6  21
ATOM     21  O   UNL     1       2.399  -2.642  -1.262  1.00  0.00    -0.500 OA
ATOM     22  H   UNL     1       1.570  -2.156  -1.394  1.00  0.00     0.294 HD
ENDBRANCH   6  21
TORSDOF 5
ENDMDL
MODEL 3
REMARK VINA RESULT:    -4.279      9.643     12.519
REMARK INTER + INTRA:          -6.184
REMARK INTER:                  -5.417
REMARK INTRA:                  -0.767
REMARK UNBOUND:                -0.904
REMARK SMILES Cc1ccc(C(=O)c2cc(O)c(O)c([N+](=O)[O-])c2)cc1
REMARK SMILES IDX 8 1 18 2 9 3 14 4 10 5 12 6 6 7 7 8 5 9 4 10 19 11 3 12
REMARK SMILES IDX 20 13 2 14 1 15 15 16 17 17 16 18 11 19 13 21
REMARK H PARENT 11 20 13 22
ROOT
ATOM      1  C   UNL     1       5.115  -2.311  -3.980  1.00  0.00     0.033 A 
ATOM      2  C   UNL     1       4.375  -1.165  -4.161  1.00  0.00     0.102 A 
ATOM      3  C   UNL     1       4.959  -3.135  -2.891  1.00  0.00     0.063 A 
ATOM      4  C   UNL     1       3.425  -0.825  -3.198  1.00  0.00     0.315 A 
ATOM      5  C   UNL     1       4.009  -2.795  -1.927  1.00  0.00     0.165 A 
ATOM      6  C   UNL     1       3.241  -1.640  -2.081  1.00  0.00     0.237 A 
ENDROOT
BRANCH   1   7
ATOM      7  C   UNL     1       6.133  -2.675  -5.011  1.00  0.00     0.193 C 
ATOM      8  O   UNL     1       6.198  -3.866  -5.350  1.00  0.00    -0.289 OA
BRANCH   7   9
ATOM      9  C   UNL     1       7.023  -1.693  -5.609  1.00  0.00     0.023 A 
ATOM     10  C   UNL     1       6.592  -0.931  -6.695  1.00  0.00     0.012 A 
ATOM     11  C   UNL     1       8.307  -1.512  -5.096  1.00  0.00     0.012 A 
ATOM     12  C   UNL     1       7.446   0.011  -7.268  1.00  0.00     0.004 A 
ATOM     13  C   UNL     1       9.162  -0.569  -5.668  1.00  0.00     0.004 A 
ATOM     14  C   UNL     1       8.731   0.192  -6.755  1.00  0.00    -0.051 A 
ATOM     15  C   UNL     1       9.644   1.198  -7.369  1.00  0.00     0.044 C 
ENDBRANCH   7   9
ENDBRANCH   1   7
BRANCH   4  16
ATOM     16  N   UNL     1       2.653   0.356  -3.372  1.00  0.00     0.066 N 
ATOM     17  O   UNL     1       2.355   1.039  -2.363  1.00  0.00    -0.258 OA
ATOM     18  O   UNL     1       2.294   0.680  -4.528  1.00  0.00    -0.258 OA
ENDBRANCH   4  16
BRANCH   5  19
ATOM     19  O   UNL     1       3.840  -3.600  -0.841  1.00  0.00    -0.504 OA
ATOM     20  H   UNL     1       3.468  -4.452  -1.123  1.00  0.00     0.293 HD
ENDBRANCH   5  19
BRANCH   6  21
ATOM     21  O   UNL     1       2.315  -1.318  -1.132  1.00  0.00    -0.500 OA
ATOM     22  H   UNL     1       2.059  -0.387  -1.229  1.00  0.00     0.294 HD
ENDBRANCH   6  21
TORSDOF 5
ENDMDL
MODEL 4
REMARK VINA RESULT:    -3.967      7.091      9.617
REMARK INTER + INTRA:          -5.799
REMARK INTER:                  -4.824
REMARK INTRA:                  -0.975
REMARK UNBOUND:                -0.904
REMARK SMILES Cc1ccc(C(=O)c2cc(O)c(O)c([N+](=O)[O-])c2)cc1
REMARK SMILES IDX 8 1 18 2 9 3 14 4 10 5 12 6 6 7 7 8 5 9 4 10 19 11 3 12
REMARK SMILES IDX 20 13 2 14 1 15 15 16 17 17 16 18 11 19 13 21
REMARK H PARENT 11 20 13 22
ROOT
ATOM      1  C   UNL     1       7.502  -1.081  -6.563  1.00  0.00     0.033 A 
ATOM      2  C   UNL     1       8.183   0.099  -6.754  1.00  0.00     0.102 A 
ATOM      3  C   UNL     1       7.969  -2.294  -7.012  1.00  0.00     0.063 A 
ATOM      4  C   UNL     1       9.401   0.063  -7.433  1.00  0.00     0.315 A 
ATOM      5  C   UNL     1       9.186  -2.329  -7.692  1.00  0.00     0.165 A 
ATOM      6  C   UNL     1       9.903  -1.151  -7.902  1.00  0.00     0.237 A 
ENDROOT
BRANCH   1   7
ATOM      7  C   UNL     1       6.197  -1.043  -5.836  1.00  0.00     0.193 C 
ATOM      8  O   UNL     1       5.329  -0.269  -6.266  1.00  0.00    -0.289 OA
BRANCH   7   9
ATOM      9  C   UNL     1       5.930  -1.869  -4.669  1.00  0.00     0.023 A 
ATOM     10  C   UNL     1       6.810  -1.853  -3.587  1.00  0.00     0.012 A 
ATOM     11  C   UNL     1       4.794  -2.677  -4.632  1.00  0.00     0.012 A 
ATOM     12  C   UNL     1       6.554  -2.645  -2.468  1.00  0.00     0.004 A 
ATOM     13  C   UNL     1       4.537  -3.470  -3.513  1.00  0.00     0.004 A 
ATOM     14  C   UNL     1       5.417  -3.454  -2.430  1.00  0.00    -0.051 A 
ATOM     15  C   UNL     1       5.144  -4.301  -1.235  1.00  0.00     0.044 C 
ENDBRANCH   7   9
ENDBRANCH   1   7
BRANCH   4  16
ATOM     16  N   UNL     1      10.117   1.274  -7.638  1.00  0.00     0.066 N 
ATOM     17  O   UNL     1       9.988   2.203  -6.804  1.00  0.00    -0.258 OA
ATOM     18  O   UNL     1      10.856   1.378  -8.645  1.00  0.00    -0.258 OA
ENDBRANCH   4  16
BRANCH   5  19
ATOM     19  O   UNL     1       9.665  -3.523  -8.144  1.00  0.00    -0.504 OA
ATOM     20  H   UNL     1       9.492  -3.603  -9.096  1.00  0.00     0.293 HD
ENDBRANCH   5  19
BRANCH   6  21
ATOM     21  O   UNL     1      11.094  -1.199  -8.567  1.00  0.00    -0.500 OA
ATOM     22  H   UNL     1      10.978  -0.856  -9.467  1.00  0.00     0.294 HD
ENDBRANCH   6  21
TORSDOF 5
ENDMDL
MODEL 5
REMARK VINA RESULT:    -3.961      6.603      9.388
REMARK INTER + INTRA:          -5.791
REMARK INTER:                  -4.814
REMARK INTRA:                  -0.977
REMARK UNBOUND:                -0.904
REMARK SMILES Cc1ccc(C(=O)c2cc(O)c(O)c([N+](=O)[O-])c2)cc1
REMARK SMILES IDX 8 1 18 2 9 3 14 4 10 5 12 6 6 7 7 8 5 9 4 10 19 11 3 12
REMARK SMILES IDX 20 13 2 14 1 15 15 16 17 17 16 18 11 19 13 21
REMARK H PARENT 11 20 13 22
ROOT
ATOM      1  C   UNL     1       8.367  -1.432  -5.648  1.00  0.00     0.033 A 
ATOM      2  C   UNL     1       8.802  -2.466  -6.445  1.00  0.00     0.102 A 
ATOM      3  C   UNL     1       8.685  -0.118  -5.893  1.00  0.00     0.063 A 
ATOM      4  C   UNL     1       9.600  -2.168  -7.549  1.00  0.00     0.315 A 
ATOM      5  C   UNL     1       9.484   0.182  -6.997  1.00  0.00     0.165 A 
ATOM      6  C   UNL     1       9.941  -0.844  -7.826  1.00  0.00     0.237 A 
ENDROOT
BRANCH   1   7
ATOM      7  C   UNL     1       7.512  -1.752  -4.465  1.00  0.00     0.193 C 
ATOM      8  O   UNL     1       7.954  -2.577  -3.651  1.00  0.00    -0.289 OA
BRANCH   7   9
ATOM      9  C   UNL     1       6.213  -1.136  -4.253  1.00  0.00     0.023 A 
ATOM     10  C   UNL     1       5.252  -1.168  -5.264  1.00  0.00     0.012 A 
ATOM     11  C   UNL     1       5.926  -0.513  -3.039  1.00  0.00     0.012 A 
ATOM     12  C   UNL     1       4.005  -0.578  -5.060  1.00  0.00     0.004 A 
ATOM     13  C   UNL     1       4.679   0.079  -2.834  1.00  0.00     0.004 A 
ATOM     14  C   UNL     1       3.718   0.046  -3.845  1.00  0.00    -0.051 A 
ATOM     15  C   UNL     1       2.386   0.679  -3.628  1.00  0.00     0.044 C 
ENDBRANCH   7   9
ENDBRANCH   1   7
BRANCH   4  16
ATOM     16  N   UNL     1      10.057  -3.226  -8.382  1.00  0.00     0.066 N 
ATOM     17  O   UNL     1       9.359  -4.264  -8.480  1.00  0.00    -0.258 OA
ATOM     18  O   UNL     1      11.142  -3.090  -8.993  1.00  0.00    -0.258 OA
ENDBRANCH   4  16
BRANCH   5  19
ATOM     19  O   UNL     1       9.809   1.479  -7.255  1.00  0.00    -0.504 OA
ATOM     20  H   UNL     1      10.509   1.512  -7.928  1.00  0.00     0.293 HD
ENDBRANCH   5  19
BRANCH   6  21
ATOM     21  O   UNL     1      10.721  -0.539  -8.903  1.00  0.00    -0.500 OA
ATOM     22  H   UNL     1      10.303   0.168  -9.419  1.00  0.00     0.294 HD
ENDBRANCH   6  21
TORSDOF 5
ENDMDL
MODEL 6
REMARK VINA RESULT:    -3.909      6.556      8.932
REMARK INTER + INTRA:          -5.727
REMARK INTER:                  -4.756
REMARK INTRA:                  -0.971
REMARK UNBOUND:                -0.904
REMARK SMILES Cc1ccc(C(=O)c2cc(O)c(O)c([N+](=O)[O-])c2)cc1
REMARK SMILES IDX 8 1 18 2 9 3 14 4 10 5 12 6 6 7 7 8 5 9 4 10 19 11 3 12
REMARK SMILES IDX 20 13 2 14 1 15 15 16 17 17 16 18 11 19 13 21
REMARK H PARENT 11 20 13 22
ROOT
ATOM      1  C   UNL     1       7.494  -1.046  -6.600  1.00  0.00     0.033 A 
ATOM      2  C   UNL     1       8.003  -2.252  -7.023  1.00  0.00     0.102 A 
ATOM      3  C   UNL     1       8.138   0.150  -6.806  1.00  0.00     0.063 A 
ATOM      4  C   UNL     1       9.227  -2.260  -7.693  1.00  0.00     0.315 A 
ATOM      5  C   UNL     1       9.362   0.142  -7.475  1.00  0.00     0.165 A 
ATOM      6  C   UNL     1       9.906  -1.063  -7.919  1.00  0.00     0.237 A 
ENDROOT
BRANCH   1   7
ATOM      7  C   UNL     1       6.183  -1.037  -5.882  1.00  0.00     0.193 C 
ATOM      8  O   UNL     1       5.297  -0.291  -6.325  1.00  0.00    -0.289 OA
BRANCH   7   9
ATOM      9  C   UNL     1       5.930  -1.861  -4.711  1.00  0.00     0.023 A 
ATOM     10  C   UNL     1       4.806  -2.686  -4.668  1.00  0.00     0.012 A 
ATOM     11  C   UNL     1       6.811  -1.826  -3.630  1.00  0.00     0.012 A 
ATOM     12  C   UNL     1       4.564  -3.476  -3.544  1.00  0.00     0.004 A 
ATOM     13  C   UNL     1       6.569  -2.616  -2.505  1.00  0.00     0.004 A 
ATOM     14  C   UNL     1       5.445  -3.441  -2.462  1.00  0.00    -0.051 A 
ATOM     15  C   UNL     1       5.185  -4.285  -1.261  1.00  0.00     0.044 C 
ENDBRANCH   7   9
ENDBRANCH   1   7
BRANCH   4  16
ATOM     16  N   UNL     1       9.766  -3.498  -8.137  1.00  0.00     0.066 N 
ATOM     17  O   UNL     1       9.501  -4.541  -7.492  1.00  0.00    -0.258 OA
ATOM     18  O   UNL     1      10.490  -3.511  -9.160  1.00  0.00    -0.258 OA
ENDBRANCH   4  16
BRANCH   5  19
ATOM     19  O   UNL     1      10.014   1.319  -7.690  1.00  0.00    -0.504 OA
ATOM     20  H   UNL     1      10.811   1.355  -7.136  1.00  0.00     0.293 HD
ENDBRANCH   5  19
BRANCH   6  21
ATOM     21  O   UNL     1      11.104  -1.058  -8.573  1.00  0.00    -0.500 OA
ATOM     22  H   UNL     1      11.796  -0.718  -7.985  1.00  0.00     0.294 HD
ENDBRANCH   6  21
TORSDOF 5
ENDMDL
MODEL 7
REMARK VINA RESULT:    -3.903      7.131     10.074
REMARK INTER + INTRA:          -5.719
REMARK INTER:                  -4.757
REMARK INTRA:                  -0.963
REMARK UNBOUND:                -0.904
REMARK SMILES Cc1ccc(C(=O)c2cc(O)c(O)c([N+](=O)[O-])c2)cc1
REMARK SMILES IDX 8 1 18 2 9 3 14 4 10 5 12 6 6 7 7 8 5 9 4 10 19 11 3 12
REMARK SMILES IDX 20 13 2 14 1 15 15 16 17 17 16 18 11 19 13 21
REMARK H PARENT 11 20 13 22
ROOT
ATOM      1  C   UNL     1       8.388  -1.488  -5.611  1.00  0.00     0.033 A 
ATOM      2  C   UNL     1       8.683  -0.181  -5.924  1.00  0.00     0.102 A 
ATOM      3  C   UNL     1       8.840  -2.553  -6.352  1.00  0.00     0.063 A 
ATOM      4  C   UNL     1       9.477   0.074  -7.042  1.00  0.00     0.315 A 
ATOM      5  C   UNL     1       9.634  -2.298  -7.471  1.00  0.00     0.165 A 
ATOM      6  C   UNL     1       9.953  -0.984  -7.816  1.00  0.00     0.237 A 
ENDROOT
BRANCH   1   7
ATOM      7  C   UNL     1       7.538  -1.761  -4.413  1.00  0.00     0.193 C 
ATOM      8  O   UNL     1       7.984  -2.550  -3.566  1.00  0.00    -0.289 OA
BRANCH   7   9
ATOM      9  C   UNL     1       6.236  -1.142  -4.224  1.00  0.00     0.023 A 
ATOM     10  C   UNL     1       5.285  -1.191  -5.243  1.00  0.00     0.012 A 
ATOM     11  C   UNL     1       5.937  -0.499  -3.022  1.00  0.00     0.012 A 
ATOM     12  C   UNL     1       4.036  -0.597  -5.061  1.00  0.00     0.004 A 
ATOM     13  C   UNL     1       4.688   0.095  -2.839  1.00  0.00     0.004 A 
ATOM     14  C   UNL     1       3.737   0.046  -3.859  1.00  0.00    -0.051 A 
ATOM     15  C   UNL     1       2.403   0.682  -3.665  1.00  0.00     0.044 C 
ENDBRANCH   7   9
ENDBRANCH   1   7
BRANCH   4  16
ATOM     16  N   UNL     1       9.791   1.420  -7.377  1.00  0.00     0.066 N 
ATOM     17  O   UNL     1       8.973   2.324  -7.083  1.00  0.00    -0.258 OA
ATOM     18  O   UNL     1      10.875   1.662  -7.957  1.00  0.00    -0.258 OA
ENDBRANCH   4  16
BRANCH   5  19
ATOM     19  O   UNL     1      10.092  -3.342  -8.218  1.00  0.00    -0.504 OA
ATOM     20  H   UNL     1       9.549  -3.432  -9.018  1.00  0.00     0.293 HD
ENDBRANCH   5  19
BRANCH   6  21
ATOM     21  O   UNL     1      10.730  -0.747  -8.912  1.00  0.00    -0.500 OA
ATOM     22  H   UNL     1      10.451   0.078  -9.338  1.00  0.00     0.294 HD
ENDBRANCH   6  21
TORSDOF 5
ENDMDL
MODEL 8
REMARK VINA RESULT:    -3.700      9.553     12.138
REMARK INTER + INTRA:          -5.470
REMARK INTER:                  -4.922
REMARK INTRA:                  -0.548
REMARK UNBOUND:                -0.904
REMARK SMILES Cc1ccc(C(=O)c2cc(O)c(O)c([N+](=O)[O-])c2)cc1
REMARK SMILES IDX 8 1 18 2 9 3 14 4 10 5 12 6 6 7 7 8 5 9 4 10 19 11 3 12
REMARK SMILES IDX 20 13 2 14 1 15 15 16 17 17 16 18 11 19 13 21
REMARK H PARENT 11 20 13 22
ROOT
ATOM      1  C   UNL     1       5.356  -1.693  -4.328  1.00  0.00     0.033 A 
ATOM      2  C   UNL     1       4.917  -2.568  -3.362  1.00  0.00     0.102 A 
ATOM      3  C   UNL     1       4.815  -0.441  -4.503  1.00  0.00     0.063 A 
ATOM      4  C   UNL     1       3.878  -2.167  -2.522  1.00  0.00     0.315 A 
ATOM      5  C   UNL     1       3.776  -0.040  -3.663  1.00  0.00     0.165 A 
ATOM      6  C   UNL     1       3.307  -0.904  -2.672  1.00  0.00     0.237 A 
ENDROOT
BRANCH   1   7
ATOM      7  C   UNL     1       6.469  -2.121  -5.228  1.00  0.00     0.193 C 
ATOM      8  O   UNL     1       6.606  -3.339  -5.423  1.00  0.00    -0.289 OA
BRANCH   7   9
ATOM      9  C   UNL     1       7.368  -1.172  -5.863  1.00  0.00     0.023 A 
ATOM     10  C   UNL     1       6.965  -0.490  -7.012  1.00  0.00     0.012 A 
ATOM     11  C   UNL     1       8.634  -0.941  -5.324  1.00  0.00     0.012 A 
ATOM     12  C   UNL     1       7.828   0.421  -7.620  1.00  0.00     0.004 A 
ATOM     13  C   UNL     1       9.497  -0.030  -5.932  1.00  0.00     0.004 A 
ATOM     14  C   UNL     1       9.094   0.652  -7.081  1.00  0.00    -0.051 A 
ATOM     15  C   UNL     1      10.017   1.625  -7.733  1.00  0.00     0.044 C 
ENDBRANCH   7   9
ENDBRANCH   1   7
BRANCH   4  16
ATOM     16  N   UNL     1       3.414  -3.061  -1.518  1.00  0.00     0.066 N 
ATOM     17  O   UNL     1       2.569  -2.651  -0.685  1.00  0.00    -0.258 OA
ATOM     18  O   UNL     1       3.861  -4.231  -1.495  1.00  0.00    -0.258 OA
ENDBRANCH   4  16
BRANCH   5  19
ATOM     19  O   UNL     1       3.228   1.197  -3.821  1.00  0.00    -0.504 OA
ATOM     20  H   UNL     1       3.408   1.521  -4.719  1.00  0.00     0.293 HD
ENDBRANCH   5  19
BRANCH   6  21
ATOM     21  O   UNL     1       2.290  -0.500  -1.856  1.00  0.00    -0.500 OA
ATOM     22  H   UNL     1       2.179  -1.138  -1.134  1.00  0.00     0.294 HD
ENDBRANCH   6  21
TORSDOF 5
ENDMDL
MODEL 9
REMARK VINA RESULT:    -3.603      8.652     12.009
REMARK INTER + INTRA:          -5.350
REMARK INTER:                  -4.826
REMARK INTRA:                  -0.524
REMARK UNBOUND:                -0.904
REMARK SMILES Cc1ccc(C(=O)c2cc(O)c(O)c([N+](=O)[O-])c2)cc1
REMARK SMILES IDX 8 1 18 2 9 3 14 4 10 5 12 6 6 7 7 8 5 9 4 10 19 11 3 12
REMARK SMILES IDX 20 13 2 14 1 15 15 16 17 17 16 18 11 19 13 21
REMARK H PARENT 11 20 13 22
ROOT
ATOM      1  C   UNL     1       5.865  -1.418  -3.746  1.00  0.00     0.033 A 
ATOM      2  C   UNL     1       4.674  -0.806  -3.432  1.00  0.00     0.102 A 
ATOM      3  C   UNL     1       6.236  -2.639  -3.234  1.00  0.00     0.063 A 
ATOM      4  C   UNL     1       3.802  -1.455  -2.557  1.00  0.00     0.315 A 
ATOM      5  C   UNL     1       5.364  -3.287  -2.359  1.00  0.00     0.165 A 
ATOM      6  C   UNL     1       4.147  -2.695  -2.020  1.00  0.00     0.237 A 
ENDROOT
BRANCH   1   7
ATOM      7  C   UNL     1       6.799  -0.723  -4.683  1.00  0.00     0.193 C 
ATOM      8  O   UNL     1       6.822   0.516  -4.648  1.00  0.00    -0.289 OA
BRANCH   7   9
ATOM      9  C   UNL     1       7.657  -1.447  -5.607  1.00  0.00     0.023 A 
ATOM     10  C   UNL     1       8.842  -2.027  -5.152  1.00  0.00     0.012 A 
ATOM     11  C   UNL     1       7.296  -1.562  -6.950  1.00  0.00     0.012 A 
ATOM     12  C   UNL     1       9.664  -2.721  -6.039  1.00  0.00     0.004 A 
ATOM     13  C   UNL     1       8.119  -2.257  -7.837  1.00  0.00     0.004 A 
ATOM     14  C   UNL     1       9.303  -2.836  -7.382  1.00  0.00    -0.051 A 
ATOM     15  C   UNL     1      10.183  -3.577  -8.329  1.00  0.00     0.044 C 
ENDBRANCH   7   9
ENDBRANCH   1   7
BRANCH   4  16
ATOM     16  N   UNL     1       2.566  -0.836  -2.223  1.00  0.00     0.066 N 
ATOM     17  O   UNL     1       2.318   0.306  -2.680  1.00  0.00    -0.258 OA
ATOM     18  O   UNL     1       1.762  -1.449  -1.484  1.00  0.00    -0.258 OA
ENDBRANCH   4  16
BRANCH   5  19
ATOM     19  O   UNL     1       5.714  -4.498  -1.842  1.00  0.00    -0.504 OA
ATOM     20  H   UNL     1       5.805  -5.145  -2.562  1.00  0.00     0.293 HD
ENDBRANCH   5  19
BRANCH   6  21
ATOM     21  O   UNL     1       3.303  -3.339  -1.163  1.00  0.00    -0.500 OA
ATOM     22  H   UNL     1       2.556  -2.760  -0.944  1.00  0.00     0.294 HD
ENDBRANCH   6  21
TORSDOF 5
ENDMDL
