MODEL 1
REMARK VINA RESULT:    -5.094      0.000      0.000
REMARK INTER + INTRA:          -7.044
REMARK INTER:                  -6.286
REMARK INTRA:                  -0.758
REMARK UNBOUND:                -0.758
REMARK SMILES Cc1ccc(C(=O)c2cc(O)c(O)c([N+](=O)[O-])c2)cc1
REMARK SMILES IDX 8 1 18 2 9 3 14 4 10 5 12 6 6 7 7 8 5 9 4 10 19 11 3 12
REMARK SMILES IDX 20 13 2 14 1 15 15 16 17 17 16 18 11 19 13 21
REMARK H PARENT 11 20 13 22
ROOT
ATOM      1  C   UNL     1      -2.124   7.263  -5.978  1.00  0.00     0.033 A 
ATOM      2  C   UNL     1      -1.376   6.253  -6.537  1.00  0.00     0.102 A 
ATOM      3  C   UNL     1      -2.658   7.185  -4.714  1.00  0.00     0.063 A 
ATOM      4  C   UNL     1      -1.149   5.098  -5.787  1.00  0.00     0.315 A 
ATOM      5  C   UNL     1      -2.431   6.030  -3.964  1.00  0.00     0.165 A 
ATOM      6  C   UNL     1      -1.676   4.986  -4.501  1.00  0.00     0.237 A 
ENDROOT
BRANCH   1   7
ATOM      7  C   UNL     1      -2.367   8.499  -6.780  1.00  0.00     0.193 C 
ATOM      8  O   UNL     1      -2.440   9.573  -6.163  1.00  0.00    -0.289 OA
BRANCH   7   9
ATOM      9  C   UNL     1      -2.516   8.474  -8.226  1.00  0.00     0.023 A 
ATOM     10  C   UNL     1      -3.789   8.433  -8.796  1.00  0.00     0.012 A 
ATOM     11  C   UNL     1      -1.387   8.489  -9.044  1.00  0.00     0.012 A 
ATOM     12  C   UNL     1      -3.931   8.409 -10.183  1.00  0.00     0.004 A 
ATOM     13  C   UNL     1      -1.529   8.465 -10.432  1.00  0.00     0.004 A 
ATOM     14  C   UNL     1      -2.801   8.425 -11.002  1.00  0.00    -0.051 A 
ATOM     15  C   UNL     1      -2.954   8.397 -12.485  1.00  0.00     0.044 C 
ENDBRANCH   7   9
ENDBRANCH   1   7
BRANCH   4  16
ATOM     16  N   UNL     1      -0.377   4.046  -6.351  1.00  0.00     0.066 N 
ATOM     17  O   UNL     1      -0.624   2.864  -6.010  1.00  0.00    -0.258 OA
ATOM     18  O   UNL     1       0.525   4.329  -7.173  1.00  0.00    -0.258 OA
ENDBRANCH   4  16
BRANCH   5  19
ATOM     19  O   UNL     1      -2.952   5.935  -2.709  1.00  0.00    -0.504 OA
ATOM     20  H   UNL     1      -3.693   6.556  -2.616  1.00  0.00     0.293 HD
ENDBRANCH   5  19
BRANCH   6  21
ATOM     21  O   UNL     1      -1.461   3.862  -3.758  1.00  0.00    -0.500 OA
ATOM     22  H   UNL     1      -2.282   3.351  -3.695  1.00  0.00     0.294 HD
ENDBRANCH   6  21
TORSDOF 5
ENDMDL
MODEL 2
REMARK VINA RESULT:    -5.044      2.040      3.548
REMARK INTER + INTRA:          -6.982
REMARK INTER:                  -6.192
REMARK INTRA:                  -0.790
REMARK UNBOUND:                -0.758
REMARK SMILES Cc1ccc(C(=O)c2cc(O)c(O)c([N+](=O)[O-])c2)cc1
REMARK SMILES IDX 8 1 18 2 9 3 14 4 10 5 12 6 6 7 7 8 5 9 4 10 19 11 3 12
REMARK SMILES IDX 20 13 2 14 1 15 15 16 17 17 16 18 11 19 13 21
REMARK H PARENT 11 20 13 22
ROOT
ATOM      1  C   UNL     1      -2.286   5.954  -7.151  1.00  0.00     0.033 A 
ATOM      2  C   UNL     1      -2.965   6.351  -6.022  1.00  0.00     0.102 A 
ATOM      3  C   UNL     1      -1.335   4.961  -7.140  1.00  0.00     0.063 A 
ATOM      4  C   UNL     1      -2.677   5.717  -4.814  1.00  0.00     0.315 A 
ATOM      5  C   UNL     1      -1.047   4.327  -5.931  1.00  0.00     0.165 A 
ATOM      6  C   UNL     1      -1.718   4.705  -4.767  1.00  0.00     0.237 A 
ENDROOT
BRANCH   1   7
ATOM      7  C   UNL     1      -2.594   6.633  -8.446  1.00  0.00     0.193 C 
ATOM      8  O   UNL     1      -2.651   5.922  -9.461  1.00  0.00    -0.289 OA
BRANCH   7   9
ATOM      9  C   UNL     1      -2.824   8.065  -8.540  1.00  0.00     0.023 A 
ATOM     10  C   UNL     1      -1.768   8.922  -8.854  1.00  0.00     0.012 A 
ATOM     11  C   UNL     1      -4.099   8.584  -8.317  1.00  0.00     0.012 A 
ATOM     12  C   UNL     1      -1.988  10.296  -8.944  1.00  0.00     0.004 A 
ATOM     13  C   UNL     1      -4.320   9.959  -8.407  1.00  0.00     0.004 A 
ATOM     14  C   UNL     1      -3.264  10.815  -8.721  1.00  0.00    -0.051 A 
ATOM     15  C   UNL     1      -3.498  12.284  -8.816  1.00  0.00     0.044 C 
ENDBRANCH   7   9
ENDBRANCH   1   7
BRANCH   4  16
ATOM     16  N   UNL     1      -3.371   6.116  -3.638  1.00  0.00     0.066 N 
ATOM     17  O   UNL     1      -4.589   6.406  -3.723  1.00  0.00    -0.258 OA
ATOM     18  O   UNL     1      -2.747   6.164  -2.553  1.00  0.00    -0.258 OA
ENDBRANCH   4  16
BRANCH   5  19
ATOM     19  O   UNL     1      -0.108   3.341  -5.901  1.00  0.00    -0.504 OA
ATOM     20  H   UNL     1      -0.321   2.710  -5.193  1.00  0.00     0.293 HD
ENDBRANCH   5  19
BRANCH   6  21
ATOM     21  O   UNL     1      -1.427   4.078  -3.591  1.00  0.00    -0.500 OA
ATOM     22  H   UNL     1      -0.672   4.514  -3.167  1.00  0.00     0.294 HD
ENDBRANCH   6  21
TORSDOF 5
ENDMDL
MODEL 3
REMARK VINA RESULT:    -4.222      3.580      4.463
REMARK INTER + INTRA:          -5.967
REMARK INTER:                  -4.967
REMARK INTRA:                  -1.000
REMARK UNBOUND:                -0.758
REMARK SMILES Cc1ccc(C(=O)c2cc(O)c(O)c([N+](=O)[O-])c2)cc1
REMARK SMILES IDX 8 1 18 2 9 3 14 4 10 5 12 6 6 7 7 8 5 9 4 10 19 11 3 12
REMARK SMILES IDX 20 13 2 14 1 15 15 16 17 17 16 18 11 19 13 21
REMARK H PARENT 11 20 13 22
ROOT
ATOM      1  C   UNL     1      -3.714   8.727  -8.548  1.00  0.00     0.033 A 
ATOM      2  C   UNL     1      -2.785   7.972  -7.871  1.00  0.00     0.102 A 
ATOM      3  C   UNL     1      -5.065   8.639  -8.309  1.00  0.00     0.063 A 
ATOM      4  C   UNL     1      -3.232   7.079  -6.897  1.00  0.00     0.315 A 
ATOM      5  C   UNL     1      -5.513   7.746  -7.335  1.00  0.00     0.165 A 
ATOM      6  C   UNL     1      -4.596   6.966  -6.628  1.00  0.00     0.237 A 
ENDROOT
BRANCH   1   7
ATOM      7  C   UNL     1      -3.234   9.683  -9.591  1.00  0.00     0.193 C 
ATOM      8  O   UNL     1      -2.864   9.204 -10.674  1.00  0.00    -0.289 OA
BRANCH   7   9
ATOM      9  C   UNL     1      -3.193  11.120  -9.372  1.00  0.00     0.023 A 
ATOM     10  C   UNL     1      -3.850  11.979 -10.254  1.00  0.00     0.012 A 
ATOM     11  C   UNL     1      -2.497  11.639  -8.281  1.00  0.00     0.012 A 
ATOM     12  C   UNL     1      -3.811  13.357 -10.043  1.00  0.00     0.004 A 
ATOM     13  C   UNL     1      -2.457  13.018  -8.070  1.00  0.00     0.004 A 
ATOM     14  C   UNL     1      -3.114  13.877  -8.951  1.00  0.00    -0.051 A 
ATOM     15  C   UNL     1      -3.071  15.350  -8.728  1.00  0.00     0.044 C 
ENDBRANCH   7   9
ENDBRANCH   1   7
BRANCH   4  16
ATOM     16  N   UNL     1      -2.284   6.293  -6.188  1.00  0.00     0.066 N 
ATOM     17  O   UNL     1      -1.196   6.817  -5.846  1.00  0.00    -0.258 OA
ATOM     18  O   UNL     1      -2.562   5.100  -5.924  1.00  0.00    -0.258 OA
ENDBRANCH   4  16
BRANCH   5  19
ATOM     19  O   UNL     1      -6.848   7.646  -7.083  1.00  0.00    -0.504 OA
ATOM     20  H   UNL     1      -7.295   8.460  -7.370  1.00  0.00     0.293 HD
ENDBRANCH   5  19
BRANCH   6  21
ATOM     21  O   UNL     1      -5.047   6.097  -5.678  1.00  0.00    -0.500 OA
ATOM     22  H   UNL     1      -5.857   6.445  -5.275  1.00  0.00     0.294 HD
ENDBRANCH   6  21
TORSDOF 5
ENDMDL
MODEL 4
REMARK VINA RESULT:    -4.217      3.758      6.991
REMARK INTER + INTRA:          -5.962
REMARK INTER:                  -5.009
REMARK INTRA:                  -0.953
REMARK UNBOUND:                -0.758
REMARK SMILES Cc1ccc(C(=O)c2cc(O)c(O)c([N+](=O)[O-])c2)cc1
REMARK SMILES IDX 8 1 18 2 9 3 14 4 10 5 12 6 6 7 7 8 5 9 4 10 19 11 3 12
REMARK SMILES IDX 20 13 2 14 1 15 15 16 17 17 16 18 11 19 13 21
REMARK H PARENT 11 20 13 22
ROOT
ATOM      1  C   UNL     1      -3.409   8.770  -8.880  1.00  0.00     0.033 A 
ATOM      2  C   UNL     1      -3.460  10.132  -8.689  1.00  0.00     0.102 A 
ATOM      3  C   UNL     1      -3.298   8.195 -10.123  1.00  0.00     0.063 A 
ATOM      4  C   UNL     1      -3.395  10.965  -9.806  1.00  0.00     0.315 A 
ATOM      5  C   UNL     1      -3.234   9.028 -11.241  1.00  0.00     0.165 A 
ATOM      6  C   UNL     1      -3.282  10.413 -11.082  1.00  0.00     0.237 A 
ENDROOT
BRANCH   1   7
ATOM      7  C   UNL     1      -3.478   7.878  -7.683  1.00  0.00     0.193 C 
ATOM      8  O   UNL     1      -4.436   8.035  -6.911  1.00  0.00    -0.289 OA
BRANCH   7   9
ATOM      9  C   UNL     1      -2.477   6.859  -7.412  1.00  0.00     0.023 A 
ATOM     10  C   UNL     1      -2.864   5.529  -7.241  1.00  0.00     0.012 A 
ATOM     11  C   UNL     1      -1.131   7.210  -7.323  1.00  0.00     0.012 A 
ATOM     12  C   UNL     1      -1.904   4.552  -6.981  1.00  0.00     0.004 A 
ATOM     13  C   UNL     1      -0.169   6.232  -7.063  1.00  0.00     0.004 A 
ATOM     14  C   UNL     1      -0.556   4.903  -6.892  1.00  0.00    -0.051 A 
ATOM     15  C   UNL     1       0.470   3.858  -6.612  1.00  0.00     0.044 C 
ENDBRANCH   7   9
ENDBRANCH   1   7
BRANCH   4  16
ATOM     16  N   UNL     1      -3.447  12.374  -9.624  1.00  0.00     0.066 N 
ATOM     17  O   UNL     1      -3.088  12.856  -8.523  1.00  0.00    -0.258 OA
ATOM     18  O   UNL     1      -3.847  13.092 -10.569  1.00  0.00    -0.258 OA
ENDBRANCH   4  16
BRANCH   5  19
ATOM     19  O   UNL     1      -3.124   8.475 -12.481  1.00  0.00    -0.504 OA
ATOM     20  H   UNL     1      -3.325   7.526 -12.433  1.00  0.00     0.293 HD
ENDBRANCH   5  19
BRANCH   6  21
ATOM     21  O   UNL     1      -3.218  11.218 -12.182  1.00  0.00    -0.500 OA
ATOM     22  H   UNL     1      -2.733  10.765 -12.889  1.00  0.00     0.294 HD
ENDBRANCH   6  21
TORSDOF 5
ENDMDL
MODEL 5
REMARK VINA RESULT:    -4.210      3.640      6.499
REMARK INTER + INTRA:          -5.953
REMARK INTER:                  -4.965
REMARK INTRA:                  -0.988
REMARK UNBOUND:                -0.758
REMARK SMILES Cc1ccc(C(=O)c2cc(O)c(O)c([N+](=O)[O-])c2)cc1
REMARK SMILES IDX 8 1 18 2 9 3 14 4 10 5 12 6 6 7 7 8 5 9 4 10 19 11 3 12
REMARK SMILES IDX 20 13 2 14 1 15 15 16 17 17 16 18 11 19 13 21
REMARK H PARENT 11 20 13 22
ROOT
ATOM      1  C   UNL     1      -3.496   8.796  -8.768  1.00  0.00     0.033 A 
ATOM      2  C   UNL     1      -3.351   8.290 -10.039  1.00  0.00     0.102 A 
ATOM      3  C   UNL     1      -3.571  10.143  -8.505  1.00  0.00     0.063 A 
ATOM      4  C   UNL     1      -3.278   9.183 -11.108  1.00  0.00     0.315 A 
ATOM      5  C   UNL     1      -3.498  11.036  -9.574  1.00  0.00     0.165 A 
ATOM      6  C   UNL     1      -3.352  10.556 -10.876  1.00  0.00     0.237 A 
ENDROOT
BRANCH   1   7
ATOM      7  C   UNL     1      -3.573   7.839  -7.622  1.00  0.00     0.193 C 
ATOM      8  O   UNL     1      -4.560   7.925  -6.875  1.00  0.00    -0.289 OA
BRANCH   7   9
ATOM      9  C   UNL     1      -2.548   6.839  -7.371  1.00  0.00     0.023 A 
ATOM     10  C   UNL     1      -2.905   5.500  -7.210  1.00  0.00     0.012 A 
ATOM     11  C   UNL     1      -1.208   7.218  -7.292  1.00  0.00     0.012 A 
ATOM     12  C   UNL     1      -1.921   4.541  -6.969  1.00  0.00     0.004 A 
ATOM     13  C   UNL     1      -0.224   6.258  -7.051  1.00  0.00     0.004 A 
ATOM     14  C   UNL     1      -0.581   4.919  -6.890  1.00  0.00    -0.051 A 
ATOM     15  C   UNL     1       0.470   3.894  -6.631  1.00  0.00     0.044 C 
ENDBRANCH   7   9
ENDBRANCH   1   7
BRANCH   4  16
ATOM     16  N   UNL     1      -3.129   8.675 -12.427  1.00  0.00     0.066 N 
ATOM     17  O   UNL     1      -2.515   7.594 -12.595  1.00  0.00    -0.258 OA
ATOM     18  O   UNL     1      -3.616   9.321 -13.384  1.00  0.00    -0.258 OA
ENDBRANCH   4  16
BRANCH   5  19
ATOM     19  O   UNL     1      -3.571  12.375  -9.332  1.00  0.00    -0.504 OA
ATOM     20  H   UNL     1      -4.442  12.591  -8.959  1.00  0.00     0.293 HD
ENDBRANCH   5  19
BRANCH   6  21
ATOM     21  O   UNL     1      -3.282  11.440 -11.913  1.00  0.00    -0.500 OA
ATOM     22  H   UNL     1      -3.903  12.169 -11.763  1.00  0.00     0.294 HD
ENDBRANCH   6  21
TORSDOF 5
ENDMDL
MODEL 6
REMARK VINA RESULT:    -4.203      1.882      2.600
REMARK INTER + INTRA:          -5.944
REMARK INTER:                  -5.257
REMARK INTRA:                  -0.687
REMARK UNBOUND:                -0.758
REMARK SMILES Cc1ccc(C(=O)c2cc(O)c(O)c([N+](=O)[O-])c2)cc1
REMARK SMILES IDX 8 1 18 2 9 3 14 4 10 5 12 6 6 7 7 8 5 9 4 10 19 11 3 12
REMARK SMILES IDX 20 13 2 14 1 15 15 16 17 17 16 18 11 19 13 21
REMARK H PARENT 11 20 13 22
ROOT
ATOM      1  C   UNL     1      -2.390   6.279  -7.337  1.00  0.00     0.033 A 
ATOM      2  C   UNL     1      -1.407   5.316  -7.354  1.00  0.00     0.102 A 
ATOM      3  C   UNL     1      -3.107   6.594  -6.208  1.00  0.00     0.063 A 
ATOM      4  C   UNL     1      -1.125   4.631  -6.173  1.00  0.00     0.315 A 
ATOM      5  C   UNL     1      -2.826   5.907  -5.026  1.00  0.00     0.165 A 
ATOM      6  C   UNL     1      -1.834   4.926  -5.009  1.00  0.00     0.237 A 
ENDROOT
BRANCH   1   7
ATOM      7  C   UNL     1      -2.692   7.014  -8.603  1.00  0.00     0.193 C 
ATOM      8  O   UNL     1      -2.769   6.345  -9.644  1.00  0.00    -0.289 OA
BRANCH   7   9
ATOM      9  C   UNL     1      -2.893   8.453  -8.640  1.00  0.00     0.023 A 
ATOM     10  C   UNL     1      -1.822   9.300  -8.926  1.00  0.00     0.012 A 
ATOM     11  C   UNL     1      -4.156   8.988  -8.388  1.00  0.00     0.012 A 
ATOM     12  C   UNL     1      -2.015  10.681  -8.962  1.00  0.00     0.004 A 
ATOM     13  C   UNL     1      -4.350  10.369  -8.424  1.00  0.00     0.004 A 
ATOM     14  C   UNL     1      -3.279  11.216  -8.711  1.00  0.00    -0.051 A 
ATOM     15  C   UNL     1      -3.484  12.692  -8.747  1.00  0.00     0.044 C 
ENDBRANCH   7   9
ENDBRANCH   1   7
BRANCH   4  16
ATOM     16  N   UNL     1      -0.111   3.633  -6.174  1.00  0.00     0.066 N 
ATOM     17  O   UNL     1       1.069   3.969  -6.435  1.00  0.00    -0.258 OA
ATOM     18  O   UNL     1      -0.427   2.449  -5.914  1.00  0.00    -0.258 OA
ENDBRANCH   4  16
BRANCH   5  19
ATOM     19  O   UNL     1      -3.526   6.206  -3.896  1.00  0.00    -0.504 OA
ATOM     20  H   UNL     1      -4.142   6.935  -4.078  1.00  0.00     0.293 HD
ENDBRANCH   5  19
BRANCH   6  21
ATOM     21  O   UNL     1      -1.567   4.262  -3.846  1.00  0.00    -0.500 OA
ATOM     22  H   UNL     1      -0.889   3.587  -4.005  1.00  0.00     0.294 HD
ENDBRANCH   6  21
TORSDOF 5
ENDMDL
MODEL 7
REMARK VINA RESULT:    -4.201      2.354      4.066
REMARK INTER + INTRA:          -5.942
REMARK INTER:                  -4.971
REMARK INTRA:                  -0.971
REMARK UNBOUND:                -0.758
REMARK SMILES Cc1ccc(C(=O)c2cc(O)c(O)c([N+](=O)[O-])c2)cc1
REMARK SMILES IDX 8 1 18 2 9 3 14 4 10 5 12 6 6 7 7 8 5 9 4 10 19 11 3 12
REMARK SMILES IDX 20 13 2 14 1 15 15 16 17 17 16 18 11 19 13 21
REMARK H PARENT 11 20 13 22
ROOT
ATOM      1  C   UNL     1      -1.815   8.645  -9.115  1.00  0.00     0.033 A 
ATOM      2  C   UNL     1      -2.335   7.857  -8.115  1.00  0.00     0.102 A 
ATOM      3  C   UNL     1      -0.466   8.740  -9.366  1.00  0.00     0.063 A 
ATOM      4  C   UNL     1      -1.456   7.120  -7.322  1.00  0.00     0.315 A 
ATOM      5  C   UNL     1       0.413   8.004  -8.572  1.00  0.00     0.165 A 
ATOM      6  C   UNL     1      -0.082   7.193  -7.549  1.00  0.00     0.237 A 
ENDROOT
BRANCH   1   7
ATOM      7  C   UNL     1      -2.756   9.435  -9.966  1.00  0.00     0.193 C 
ATOM      8  O   UNL     1      -3.249  10.458  -9.469  1.00  0.00    -0.289 OA
BRANCH   7   9
ATOM      9  C   UNL     1      -3.097   9.042 -11.323  1.00  0.00     0.023 A 
ATOM     10  C   UNL     1      -2.934   9.946 -12.373  1.00  0.00     0.012 A 
ATOM     11  C   UNL     1      -3.586   7.760 -11.577  1.00  0.00     0.012 A 
ATOM     12  C   UNL     1      -3.261   9.568 -13.675  1.00  0.00     0.004 A 
ATOM     13  C   UNL     1      -3.913   7.382 -12.879  1.00  0.00     0.004 A 
ATOM     14  C   UNL     1      -3.750   8.286 -13.929  1.00  0.00    -0.051 A 
ATOM     15  C   UNL     1      -4.100   7.884 -15.321  1.00  0.00     0.044 C 
ENDBRANCH   7   9
ENDBRANCH   1   7
BRANCH   4  16
ATOM     16  N   UNL     1      -1.979   6.300  -6.285  1.00  0.00     0.066 N 
ATOM     17  O   UNL     1      -1.455   6.355  -5.146  1.00  0.00    -0.258 OA
ATOM     18  O   UNL     1      -2.947   5.546  -6.538  1.00  0.00    -0.258 OA
ENDBRANCH   4  16
BRANCH   5  19
ATOM     19  O   UNL     1       1.753   8.084  -8.806  1.00  0.00    -0.504 OA
ATOM     20  H   UNL     1       1.955   7.698  -9.674  1.00  0.00     0.293 HD
ENDBRANCH   5  19
BRANCH   6  21
ATOM     21  O   UNL     1       0.788   6.477  -6.780  1.00  0.00    -0.500 OA
ATOM     22  H   UNL     1       0.315   5.755  -6.338  1.00  0.00     0.294 HD
ENDBRANCH   6  21
TORSDOF 5
ENDMDL
MODEL 8
REMARK VINA RESULT:    -4.170      1.266      2.916
REMARK INTER + INTRA:          -5.904
REMARK INTER:                  -5.231
REMARK INTRA:                  -0.673
REMARK UNBOUND:                -0.758
REMARK SMILES Cc1ccc(C(=O)c2cc(O)c(O)c([N+](=O)[O-])c2)cc1
REMARK SMILES IDX 8 1 18 2 9 3 14 4 10 5 12 6 6 7 7 8 5 9 4 10 19 11 3 12
REMARK SMILES IDX 20 13 2 14 1 15 15 16 17 17 16 18 11 19 13 21
REMARK H PARENT 11 20 13 22
ROOT
ATOM      1  C   UNL     1      -2.157   7.467  -6.530  1.00  0.00     0.033 A 
ATOM      2  C   UNL     1      -2.838   7.327  -5.343  1.00  0.00     0.102 A 
ATOM      3  C   UNL     1      -1.216   6.563  -6.963  1.00  0.00     0.063 A 
ATOM      4  C   UNL     1      -2.562   6.217  -4.544  1.00  0.00     0.315 A 
ATOM      5  C   UNL     1      -0.939   5.454  -6.163  1.00  0.00     0.165 A 
ATOM      6  C   UNL     1      -1.613   5.281  -4.953  1.00  0.00     0.237 A 
ENDROOT
BRANCH   1   7
ATOM      7  C   UNL     1      -2.452   8.655  -7.387  1.00  0.00     0.193 C 
ATOM      8  O   UNL     1      -2.544   9.755  -6.822  1.00  0.00    -0.289 OA
BRANCH   7   9
ATOM      9  C   UNL     1      -2.629   8.554  -8.827  1.00  0.00     0.023 A 
ATOM     10  C   UNL     1      -1.516   8.554  -9.668  1.00  0.00     0.012 A 
ATOM     11  C   UNL     1      -3.911   8.456  -9.367  1.00  0.00     0.012 A 
ATOM     12  C   UNL     1      -1.686   8.456 -11.049  1.00  0.00     0.004 A 
ATOM     13  C   UNL     1      -4.081   8.358 -10.749  1.00  0.00     0.004 A 
ATOM     14  C   UNL     1      -2.968   8.358 -11.590  1.00  0.00    -0.051 A 
ATOM     15  C   UNL     1      -3.149   8.255 -13.066  1.00  0.00     0.044 C 
ENDBRANCH   7   9
ENDBRANCH   1   7
BRANCH   4  16
ATOM     16  N   UNL     1      -3.258   6.058  -3.314  1.00  0.00     0.066 N 
ATOM     17  O   UNL     1      -2.600   6.015  -2.247  1.00  0.00    -0.258 OA
ATOM     18  O   UNL     1      -4.507   5.967  -3.333  1.00  0.00    -0.258 OA
ENDBRANCH   4  16
BRANCH   5  19
ATOM     19  O   UNL     1      -0.010   4.547  -6.576  1.00  0.00    -0.504 OA
ATOM     20  H   UNL     1      -0.280   3.656  -6.300  1.00  0.00     0.293 HD
ENDBRANCH   5  19
BRANCH   6  21
ATOM     21  O   UNL     1      -1.334   4.192  -4.180  1.00  0.00    -0.500 OA
ATOM     22  H   UNL     1      -0.499   3.791  -4.469  1.00  0.00     0.294 HD
ENDBRANCH   6  21
TORSDOF 5
ENDMDL
MODEL 9
REMARK VINA RESULT:    -4.138      3.701      6.900
REMARK INTER + INTRA:          -5.864
REMARK INTER:                  -4.885
REMARK INTRA:                  -0.979
REMARK UNBOUND:                -0.758
REMARK SMILES Cc1ccc(C(=O)c2cc(O)c(O)c([N+](=O)[O-])c2)cc1
REMARK SMILES IDX 8 1 18 2 9 3 14 4 10 5 12 6 6 7 7 8 5 9 4 10 19 11 3 12
REMARK SMILES IDX 20 13 2 14 1 15 15 16 17 17 16 18 11 19 13 21
REMARK H PARENT 11 20 13 22
ROOT
ATOM      1  C   UNL     1      -2.209   8.875  -9.099  1.00  0.00     0.033 A 
ATOM      2  C   UNL     1      -2.452   8.535 -10.409  1.00  0.00     0.102 A 
ATOM      3  C   UNL     1      -2.489  10.120  -8.587  1.00  0.00     0.063 A 
ATOM      4  C   UNL     1      -3.010   9.494 -11.255  1.00  0.00     0.315 A 
ATOM      5  C   UNL     1      -3.046  11.079  -9.433  1.00  0.00     0.165 A 
ATOM      6  C   UNL     1      -3.307  10.766 -10.767  1.00  0.00     0.237 A 
ENDROOT
BRANCH   1   7
ATOM      7  C   UNL     1      -1.612   7.848  -8.193  1.00  0.00     0.193 C 
ATOM      8  O   UNL     1      -0.547   7.323  -8.552  1.00  0.00    -0.289 OA
BRANCH   7   9
ATOM      9  C   UNL     1      -2.232   7.462  -6.936  1.00  0.00     0.023 A 
ATOM     10  C   UNL     1      -1.503   7.530  -5.748  1.00  0.00     0.012 A 
ATOM     11  C   UNL     1      -3.556   7.024  -6.917  1.00  0.00     0.012 A 
ATOM     12  C   UNL     1      -2.099   7.160  -4.543  1.00  0.00     0.004 A 
ATOM     13  C   UNL     1      -4.152   6.654  -5.711  1.00  0.00     0.004 A 
ATOM     14  C   UNL     1      -3.424   6.722  -4.523  1.00  0.00    -0.051 A 
ATOM     15  C   UNL     1      -4.059   6.325  -3.235  1.00  0.00     0.044 C 
ENDBRANCH   7   9
ENDBRANCH   1   7
BRANCH   4  16
ATOM     16  N   UNL     1      -3.268   9.156 -12.612  1.00  0.00     0.066 N 
ATOM     17  O   UNL     1      -3.251  10.065 -13.476  1.00  0.00    -0.258 OA
ATOM     18  O   UNL     1      -3.504   7.961 -12.905  1.00  0.00    -0.258 OA
ENDBRANCH   4  16
BRANCH   5  19
ATOM     19  O   UNL     1      -3.332  12.318  -8.942  1.00  0.00    -0.504 OA
ATOM     20  H   UNL     1      -3.997  12.244  -8.238  1.00  0.00     0.293 HD
ENDBRANCH   5  19
BRANCH   6  21
ATOM     21  O   UNL     1      -3.853  11.713 -11.585  1.00  0.00    -0.500 OA
ATOM     22  H   UNL     1      -3.147  12.251 -11.976  1.00  0.00     0.294 HD
ENDBRANCH   6  21
TORSDOF 5
ENDMDL
