MODEL 1
REMARK VINA RESULT:    -6.990      0.000      0.000
REMARK INTER + INTRA:          -8.860
REMARK INTER:                  -8.216
REMARK INTRA:                  -0.644
REMARK UNBOUND:                -0.644
REMARK SMILES O=C(O)c1cc(-c2ccc(F)cc2F)ccc1O
REMARK SMILES IDX 6 1 5 2 15 3 4 4 17 5 16 6 7 7 13 8 12 9 8 10 10 11 9 12
REMARK SMILES IDX 14 13 11 14 2 15 1 16 3 17 18 19
REMARK H PARENT 3 18 18 20
ROOT
ATOM      1  C   UNL     1      -2.173   6.737  -6.710  1.00  0.00    -0.014 A 
ATOM      2  C   UNL     1      -1.303   5.682  -6.982  1.00  0.00     0.028 A 
ATOM      3  C   UNL     1      -2.765   6.845  -5.451  1.00  0.00     0.013 A 
ATOM      4  C   UNL     1      -1.024   4.734  -5.997  1.00  0.00     0.102 A 
ATOM      5  C   UNL     1      -1.616   4.843  -4.738  1.00  0.00     0.130 A 
ATOM      6  C   UNL     1      -2.487   5.899  -4.465  1.00  0.00     0.048 A 
ENDROOT
BRANCH   1   7
ATOM      7  C   UNL     1      -2.464   7.719  -7.732  1.00  0.00     0.018 A 
ATOM      8  C   UNL     1      -1.427   8.283  -8.476  1.00  0.00     0.133 A 
ATOM      9  C   UNL     1      -1.712   9.230  -9.461  1.00  0.00     0.079 A 
ATOM     10  C   UNL     1      -3.783   8.100  -7.972  1.00  0.00     0.015 A 
ATOM     11  C   UNL     1      -3.031   9.612  -9.701  1.00  0.00     0.126 A 
ATOM     12  C   UNL     1      -4.067   9.046  -8.957  1.00  0.00     0.040 A 
ATOM     13  F   UNL     1      -0.153   7.929  -8.256  1.00  0.00    -0.206 F 
ATOM     14  F   UNL     1      -3.305  10.520 -10.645  1.00  0.00    -0.207 F 
ENDBRANCH   1   7
BRANCH   4  15
ATOM     15  C   UNL     1      -0.112   3.640  -6.301  1.00  0.00     0.339 C 
ATOM     16  O   UNL     1      -0.304   2.454  -6.025  1.00  0.00    -0.246 OA
BRANCH  15  17
ATOM     17  O   UNL     1       1.010   4.065  -6.943  1.00  0.00    -0.478 OA
ATOM     18  H   UNL     1       1.329   3.405  -7.595  1.00  0.00     0.297 HD
ENDBRANCH  15  17
ENDBRANCH   4  15
BRANCH   5  19
ATOM     19  O   UNL     1      -1.356   3.928  -3.761  1.00  0.00    -0.507 OA
ATOM     20  H   UNL     1      -1.961   3.173  -3.865  1.00  0.00     0.293 HD
ENDBRANCH   5  19
TORSDOF 4
ENDMDL
MODEL 2
REMARK VINA RESULT:    -6.982      1.128      1.606
REMARK INTER + INTRA:          -8.851
REMARK INTER:                  -8.198
REMARK INTRA:                  -0.653
REMARK UNBOUND:                -0.644
REMARK SMILES O=C(O)c1cc(-c2ccc(F)cc2F)ccc1O
REMARK SMILES IDX 6 1 5 2 15 3 4 4 17 5 16 6 7 7 13 8 12 9 8 10 10 11 9 12
REMARK SMILES IDX 14 13 11 14 2 15 1 16 3 17 18 19
REMARK H PARENT 3 18 18 20
ROOT
ATOM      1  C   UNL     1      -2.202   6.705  -6.693  1.00  0.00    -0.014 A 
ATOM      2  C   UNL     1      -1.326   5.656  -6.972  1.00  0.00     0.028 A 
ATOM      3  C   UNL     1      -2.788   6.806  -5.431  1.00  0.00     0.013 A 
ATOM      4  C   UNL     1      -1.035   4.709  -5.990  1.00  0.00     0.102 A 
ATOM      5  C   UNL     1      -1.621   4.811  -4.728  1.00  0.00     0.130 A 
ATOM      6  C   UNL     1      -2.498   5.860  -4.449  1.00  0.00     0.048 A 
ENDROOT
BRANCH   1   7
ATOM      7  C   UNL     1      -2.504   7.687  -7.711  1.00  0.00     0.018 A 
ATOM      8  C   UNL     1      -3.829   8.043  -7.970  1.00  0.00     0.133 A 
ATOM      9  C   UNL     1      -4.116   8.990  -8.953  1.00  0.00     0.079 A 
ATOM     10  C   UNL     1      -1.469   8.279  -8.434  1.00  0.00     0.015 A 
ATOM     11  C   UNL     1      -3.081   9.581  -9.676  1.00  0.00     0.126 A 
ATOM     12  C   UNL     1      -1.757   9.226  -9.416  1.00  0.00     0.040 A 
ATOM     13  F   UNL     1      -4.836   7.481  -7.286  1.00  0.00    -0.206 F 
ATOM     14  F   UNL     1      -3.356  10.491 -10.620  1.00  0.00    -0.207 F 
ENDBRANCH   1   7
BRANCH   4  15
ATOM     15  C   UNL     1      -0.118   3.622  -6.302  1.00  0.00     0.339 C 
ATOM     16  O   UNL     1      -0.298   2.434  -6.023  1.00  0.00    -0.246 OA
BRANCH  15  17
ATOM     17  O   UNL     1       0.996   4.054  -6.954  1.00  0.00    -0.478 OA
ATOM     18  H   UNL     1       1.374   3.358  -7.531  1.00  0.00     0.297 HD
ENDBRANCH  15  17
ENDBRANCH   4  15
BRANCH   5  19
ATOM     19  O   UNL     1      -1.350   3.896  -3.755  1.00  0.00    -0.507 OA
ATOM     20  H   UNL     1      -1.518   4.299  -2.885  1.00  0.00     0.293 HD
ENDBRANCH   5  19
TORSDOF 4
ENDMDL
MODEL 3
REMARK VINA RESULT:    -6.959      1.720      3.213
REMARK INTER + INTRA:          -8.824
REMARK INTER:                  -8.166
REMARK INTRA:                  -0.658
REMARK UNBOUND:                -0.644
REMARK SMILES O=C(O)c1cc(-c2ccc(F)cc2F)ccc1O
REMARK SMILES IDX 6 1 5 2 15 3 4 4 17 5 16 6 7 7 13 8 12 9 8 10 10 11 9 12
REMARK SMILES IDX 14 13 11 14 2 15 1 16 3 17 18 19
REMARK H PARENT 3 18 18 20
ROOT
ATOM      1  C   UNL     1      -2.332   6.721  -6.692  1.00  0.00    -0.014 A 
ATOM      2  C   UNL     1      -2.955   6.899  -5.458  1.00  0.00     0.028 A 
ATOM      3  C   UNL     1      -1.479   5.636  -6.893  1.00  0.00     0.013 A 
ATOM      4  C   UNL     1      -2.726   5.992  -4.423  1.00  0.00     0.102 A 
ATOM      5  C   UNL     1      -1.874   4.907  -4.624  1.00  0.00     0.130 A 
ATOM      6  C   UNL     1      -1.250   4.729  -5.859  1.00  0.00     0.048 A 
ENDROOT
BRANCH   1   7
ATOM      7  C   UNL     1      -2.568   7.663  -7.766  1.00  0.00     0.018 A 
ATOM      8  C   UNL     1      -3.869   8.061  -8.075  1.00  0.00     0.133 A 
ATOM      9  C   UNL     1      -4.092   8.968  -9.111  1.00  0.00     0.079 A 
ATOM     10  C   UNL     1      -1.492   8.173  -8.491  1.00  0.00     0.015 A 
ATOM     11  C   UNL     1      -3.016   9.478  -9.836  1.00  0.00     0.126 A 
ATOM     12  C   UNL     1      -1.715   9.080  -9.526  1.00  0.00     0.040 A 
ATOM     13  F   UNL     1      -4.915   7.578  -7.390  1.00  0.00    -0.206 F 
ATOM     14  F   UNL     1      -3.229  10.349 -10.831  1.00  0.00    -0.207 F 
ENDBRANCH   1   7
BRANCH   4  15
ATOM     15  C   UNL     1      -3.387   6.196  -3.141  1.00  0.00     0.339 C 
ATOM     16  O   UNL     1      -2.847   6.101  -2.037  1.00  0.00    -0.246 OA
BRANCH  15  17
ATOM     17  O   UNL     1      -4.703   6.513  -3.282  1.00  0.00    -0.478 OA
ATOM     18  H   UNL     1      -5.166   5.892  -3.882  1.00  0.00     0.297 HD
ENDBRANCH  15  17
ENDBRANCH   4  15
BRANCH   5  19
ATOM     19  O   UNL     1      -1.637   4.009  -3.626  1.00  0.00    -0.507 OA
ATOM     20  H   UNL     1      -1.794   4.439  -2.768  1.00  0.00     0.293 HD
ENDBRANCH   5  19
TORSDOF 4
ENDMDL
MODEL 4
REMARK VINA RESULT:    -6.940      1.318      2.776
REMARK INTER + INTRA:          -8.802
REMARK INTER:                  -8.153
REMARK INTRA:                  -0.649
REMARK UNBOUND:                -0.644
REMARK SMILES O=C(O)c1cc(-c2ccc(F)cc2F)ccc1O
REMARK SMILES IDX 6 1 5 2 15 3 4 4 17 5 16 6 7 7 13 8 12 9 8 10 10 11 9 12
REMARK SMILES IDX 14 13 11 14 2 15 1 16 3 17 18 19
REMARK H PARENT 3 18 18 20
ROOT
ATOM      1  C   UNL     1      -2.294   6.725  -6.683  1.00  0.00    -0.014 A 
ATOM      2  C   UNL     1      -2.929   6.902  -5.454  1.00  0.00     0.028 A 
ATOM      3  C   UNL     1      -1.438   5.641  -6.876  1.00  0.00     0.013 A 
ATOM      4  C   UNL     1      -2.708   5.994  -4.418  1.00  0.00     0.102 A 
ATOM      5  C   UNL     1      -1.853   4.910  -4.611  1.00  0.00     0.130 A 
ATOM      6  C   UNL     1      -1.217   4.733  -5.841  1.00  0.00     0.048 A 
ENDROOT
BRANCH   1   7
ATOM      7  C   UNL     1      -2.521   7.667  -7.758  1.00  0.00     0.018 A 
ATOM      8  C   UNL     1      -1.441   8.190  -8.470  1.00  0.00     0.133 A 
ATOM      9  C   UNL     1      -1.665   9.098  -9.506  1.00  0.00     0.079 A 
ATOM     10  C   UNL     1      -3.822   8.050  -8.081  1.00  0.00     0.015 A 
ATOM     11  C   UNL     1      -2.966   9.482  -9.828  1.00  0.00     0.126 A 
ATOM     12  C   UNL     1      -4.045   8.958  -9.116  1.00  0.00     0.040 A 
ATOM     13  F   UNL     1      -0.184   7.834  -8.170  1.00  0.00    -0.206 F 
ATOM     14  F   UNL     1      -3.181  10.354 -10.822  1.00  0.00    -0.207 F 
ENDBRANCH   1   7
BRANCH   4  15
ATOM     15  C   UNL     1      -3.381   6.196  -3.142  1.00  0.00     0.339 C 
ATOM     16  O   UNL     1      -2.851   6.102  -2.033  1.00  0.00    -0.246 OA
BRANCH  15  17
ATOM     17  O   UNL     1      -4.697   6.510  -3.294  1.00  0.00    -0.478 OA
ATOM     18  H   UNL     1      -4.959   6.536  -4.238  1.00  0.00     0.297 HD
ENDBRANCH  15  17
ENDBRANCH   4  15
BRANCH   5  19
ATOM     19  O   UNL     1      -1.624   4.011  -3.612  1.00  0.00    -0.507 OA
ATOM     20  H   UNL     1      -0.697   4.083  -3.326  1.00  0.00     0.293 HD
ENDBRANCH   5  19
TORSDOF 4
ENDMDL
MODEL 5
REMARK VINA RESULT:    -5.177      3.995      6.269
REMARK INTER + INTRA:          -6.729
REMARK INTER:                  -5.654
REMARK INTRA:                  -1.075
REMARK UNBOUND:                -0.644
REMARK SMILES O=C(O)c1cc(-c2ccc(F)cc2F)ccc1O
REMARK SMILES IDX 6 1 5 2 15 3 4 4 17 5 16 6 7 7 13 8 12 9 8 10 10 11 9 12
REMARK SMILES IDX 14 13 11 14 2 15 1 16 3 17 18 19
REMARK H PARENT 3 18 18 20
ROOT
ATOM      1  C   UNL     1      -2.621   8.457  -8.616  1.00  0.00    -0.014 A 
ATOM      2  C   UNL     1      -2.690   8.088  -9.959  1.00  0.00     0.028 A 
ATOM      3  C   UNL     1      -2.854   9.781  -8.244  1.00  0.00     0.013 A 
ATOM      4  C   UNL     1      -2.992   9.042 -10.930  1.00  0.00     0.102 A 
ATOM      5  C   UNL     1      -3.224  10.366 -10.558  1.00  0.00     0.130 A 
ATOM      6  C   UNL     1      -3.155  10.736  -9.214  1.00  0.00     0.048 A 
ENDROOT
BRANCH   1   7
ATOM      7  C   UNL     1      -2.307   7.468  -7.608  1.00  0.00     0.018 A 
ATOM      8  C   UNL     1      -0.977   7.149  -7.329  1.00  0.00     0.133 A 
ATOM      9  C   UNL     1      -0.679   6.194  -6.356  1.00  0.00     0.079 A 
ATOM     10  C   UNL     1      -3.337   6.833  -6.913  1.00  0.00     0.015 A 
ATOM     11  C   UNL     1      -1.708   5.560  -5.663  1.00  0.00     0.126 A 
ATOM     12  C   UNL     1      -3.037   5.880  -5.941  1.00  0.00     0.040 A 
ATOM     13  F   UNL     1       0.024   7.748  -7.989  1.00  0.00    -0.206 F 
ATOM     14  F   UNL     1      -1.423   4.643  -4.729  1.00  0.00    -0.207 F 
ENDBRANCH   1   7
BRANCH   4  15
ATOM     15  C   UNL     1      -3.060   8.637 -12.327  1.00  0.00     0.339 C 
ATOM     16  O   UNL     1      -3.449   9.346 -13.259  1.00  0.00    -0.246 OA
BRANCH  15  17
ATOM     17  O   UNL     1      -2.638   7.357 -12.516  1.00  0.00    -0.478 OA
ATOM     18  H   UNL     1      -3.022   6.962 -13.327  1.00  0.00     0.297 HD
ENDBRANCH  15  17
ENDBRANCH   4  15
BRANCH   5  19
ATOM     19  O   UNL     1      -3.521  11.314 -11.492  1.00  0.00    -0.507 OA
ATOM     20  H   UNL     1      -4.428  11.169 -11.814  1.00  0.00     0.293 HD
ENDBRANCH   5  19
TORSDOF 4
ENDMDL
MODEL 6
REMARK VINA RESULT:    -5.172      4.330      6.667
REMARK INTER + INTRA:          -6.723
REMARK INTER:                  -5.653
REMARK INTRA:                  -1.069
REMARK UNBOUND:                -0.644
REMARK SMILES O=C(O)c1cc(-c2ccc(F)cc2F)ccc1O
REMARK SMILES IDX 6 1 5 2 15 3 4 4 17 5 16 6 7 7 13 8 12 9 8 10 10 11 9 12
REMARK SMILES IDX 14 13 11 14 2 15 1 16 3 17 18 19
REMARK H PARENT 3 18 18 20
ROOT
ATOM      1  C   UNL     1      -2.585   8.427  -8.618  1.00  0.00    -0.014 A 
ATOM      2  C   UNL     1      -2.864   9.737  -8.231  1.00  0.00     0.028 A 
ATOM      3  C   UNL     1      -2.616   8.078  -9.968  1.00  0.00     0.013 A 
ATOM      4  C   UNL     1      -3.176  10.699  -9.192  1.00  0.00     0.102 A 
ATOM      5  C   UNL     1      -3.208  10.349 -10.542  1.00  0.00     0.130 A 
ATOM      6  C   UNL     1      -2.928   9.038 -10.931  1.00  0.00     0.048 A 
ENDROOT
BRANCH   1   7
ATOM      7  C   UNL     1      -2.263   7.429  -7.621  1.00  0.00     0.018 A 
ATOM      8  C   UNL     1      -0.930   7.127  -7.337  1.00  0.00     0.133 A 
ATOM      9  C   UNL     1      -0.624   6.164  -6.375  1.00  0.00     0.079 A 
ATOM     10  C   UNL     1      -3.287   6.770  -6.943  1.00  0.00     0.015 A 
ATOM     11  C   UNL     1      -1.649   5.505  -5.698  1.00  0.00     0.126 A 
ATOM     12  C   UNL     1      -2.981   5.808  -5.981  1.00  0.00     0.040 A 
ATOM     13  F   UNL     1       0.066   7.750  -7.982  1.00  0.00    -0.206 F 
ATOM     14  F   UNL     1      -1.356   4.580  -4.774  1.00  0.00    -0.207 F 
ENDBRANCH   1   7
BRANCH   4  15
ATOM     15  C   UNL     1      -3.465  12.061  -8.767  1.00  0.00     0.339 C 
ATOM     16  O   UNL     1      -3.931  12.949  -9.484  1.00  0.00    -0.246 OA
BRANCH  15  17
ATOM     17  O   UNL     1      -3.162  12.270  -7.456  1.00  0.00    -0.478 OA
ATOM     18  H   UNL     1      -3.599  13.074  -7.105  1.00  0.00     0.297 HD
ENDBRANCH  15  17
ENDBRANCH   4  15
BRANCH   5  19
ATOM     19  O   UNL     1      -3.509  11.273 -11.498  1.00  0.00    -0.507 OA
ATOM     20  H   UNL     1      -4.476  11.362 -11.560  1.00  0.00     0.293 HD
ENDBRANCH   5  19
TORSDOF 4
ENDMDL
MODEL 7
REMARK VINA RESULT:    -4.596      1.540      1.881
REMARK INTER + INTRA:          -6.047
REMARK INTER:                  -5.078
REMARK INTRA:                  -0.969
REMARK UNBOUND:                -0.644
REMARK SMILES O=C(O)c1cc(-c2ccc(F)cc2F)ccc1O
REMARK SMILES IDX 6 1 5 2 15 3 4 4 17 5 16 6 7 7 13 8 12 9 8 10 10 11 9 12
REMARK SMILES IDX 14 13 11 14 2 15 1 16 3 17 18 19
REMARK H PARENT 3 18 18 20
ROOT
ATOM      1  C   UNL     1      -2.766   7.603  -7.625  1.00  0.00    -0.014 A 
ATOM      2  C   UNL     1      -1.508   7.002  -7.572  1.00  0.00     0.028 A 
ATOM      3  C   UNL     1      -3.818   7.085  -6.871  1.00  0.00     0.013 A 
ATOM      4  C   UNL     1      -1.303   5.883  -6.765  1.00  0.00     0.102 A 
ATOM      5  C   UNL     1      -2.355   5.365  -6.011  1.00  0.00     0.130 A 
ATOM      6  C   UNL     1      -3.614   5.966  -6.063  1.00  0.00     0.048 A 
ENDROOT
BRANCH   1   7
ATOM      7  C   UNL     1      -2.980   8.763  -8.463  1.00  0.00     0.018 A 
ATOM      8  C   UNL     1      -2.945   8.639  -9.853  1.00  0.00     0.133 A 
ATOM      9  C   UNL     1      -3.152   9.760 -10.657  1.00  0.00     0.079 A 
ATOM     10  C   UNL     1      -3.223  10.006  -7.879  1.00  0.00     0.015 A 
ATOM     11  C   UNL     1      -3.394  11.003 -10.073  1.00  0.00     0.126 A 
ATOM     12  C   UNL     1      -3.430  11.125  -8.683  1.00  0.00     0.040 A 
ATOM     13  F   UNL     1      -2.710   7.453 -10.430  1.00  0.00    -0.206 F 
ATOM     14  F   UNL     1      -3.593  12.080 -10.844  1.00  0.00    -0.207 F 
ENDBRANCH   1   7
BRANCH   4  15
ATOM     15  C   UNL     1       0.018   5.270  -6.724  1.00  0.00     0.339 C 
ATOM     16  O   UNL     1       0.272   4.152  -6.271  1.00  0.00    -0.246 OA
BRANCH  15  17
ATOM     17  O   UNL     1       0.979   6.076  -7.252  1.00  0.00    -0.478 OA
ATOM     18  H   UNL     1       0.754   6.364  -8.162  1.00  0.00     0.297 HD
ENDBRANCH  15  17
ENDBRANCH   4  15
BRANCH   5  19
ATOM     19  O   UNL     1      -2.175   4.273  -5.215  1.00  0.00    -0.507 OA
ATOM     20  H   UNL     1      -1.604   3.635  -5.677  1.00  0.00     0.293 HD
ENDBRANCH   5  19
TORSDOF 4
ENDMDL
