MODEL 1
REMARK VINA RESULT:    -6.890      0.000      0.000
REMARK INTER + INTRA:          -8.672
REMARK INTER:                  -8.099
REMARK INTRA:                  -0.573
REMARK UNBOUND:                -0.573
REMARK SMILES O=C(O)c1cc(-c2ccc(F)cc2F)ccc1O
REMARK SMILES IDX 6 1 5 2 15 3 4 4 17 5 16 6 7 7 13 8 12 9 8 10 10 11 9 12
REMARK SMILES IDX 14 13 11 14 2 15 1 16 3 17 18 19
REMARK H PARENT 3 18 18 20
ROOT
ATOM      1  C   UNL     1       5.114   5.645  -1.684  1.00  0.00    -0.014 A 
ATOM      2  C   UNL     1       4.042   5.823  -0.811  1.00  0.00     0.028 A 
ATOM      3  C   UNL     1       5.303   4.416  -2.316  1.00  0.00     0.013 A 
ATOM      4  C   UNL     1       3.156   4.772  -0.570  1.00  0.00     0.102 A 
ATOM      5  C   UNL     1       3.345   3.543  -1.202  1.00  0.00     0.130 A 
ATOM      6  C   UNL     1       4.419   3.365  -2.075  1.00  0.00     0.048 A 
ENDROOT
BRANCH   1   7
ATOM      7  C   UNL     1       6.034   6.734  -1.933  1.00  0.00     0.018 A 
ATOM      8  C   UNL     1       7.411   6.510  -1.903  1.00  0.00     0.133 A 
ATOM      9  C   UNL     1       8.294   7.563  -2.144  1.00  0.00     0.079 A 
ATOM     10  C   UNL     1       5.541   8.010  -2.205  1.00  0.00     0.015 A 
ATOM     11  C   UNL     1       7.801   8.839  -2.415  1.00  0.00     0.126 A 
ATOM     12  C   UNL     1       6.424   9.062  -2.446  1.00  0.00     0.040 A 
ATOM     13  F   UNL     1       7.901   5.290  -1.641  1.00  0.00    -0.206 F 
ATOM     14  F   UNL     1       8.647   9.850  -2.646  1.00  0.00    -0.207 F 
ENDBRANCH   1   7
BRANCH   4  15
ATOM     15  C   UNL     1       2.042   4.978   0.344  1.00  0.00     0.339 C 
ATOM     16  O   UNL     1       1.789   4.282   1.330  1.00  0.00    -0.246 OA
BRANCH  15  17
ATOM     17  O   UNL     1       1.279   6.051  -0.002  1.00  0.00    -0.478 OA
ATOM     18  H   UNL     1       0.614   5.820  -0.684  1.00  0.00     0.297 HD
ENDBRANCH  15  17
ENDBRANCH   4  15
BRANCH   5  19
ATOM     19  O   UNL     1       2.491   2.504  -0.981  1.00  0.00    -0.507 OA
ATOM     20  H   UNL     1       3.009   1.701  -0.799  1.00  0.00     0.293 HD
ENDBRANCH   5  19
TORSDOF 4
ENDMDL
MODEL 2
REMARK VINA RESULT:    -6.874      1.203      2.683
REMARK INTER + INTRA:          -8.653
REMARK INTER:                  -8.065
REMARK INTRA:                  -0.588
REMARK UNBOUND:                -0.573
REMARK SMILES O=C(O)c1cc(-c2ccc(F)cc2F)ccc1O
REMARK SMILES IDX 6 1 5 2 15 3 4 4 17 5 16 6 7 7 13 8 12 9 8 10 10 11 9 12
REMARK SMILES IDX 14 13 11 14 2 15 1 16 3 17 18 19
REMARK H PARENT 3 18 18 20
ROOT
ATOM      1  C   UNL     1       5.190   5.692  -1.593  1.00  0.00    -0.014 A 
ATOM      2  C   UNL     1       5.384   4.469  -2.233  1.00  0.00     0.028 A 
ATOM      3  C   UNL     1       4.142   5.846  -0.686  1.00  0.00     0.013 A 
ATOM      4  C   UNL     1       4.530   3.398  -1.966  1.00  0.00     0.102 A 
ATOM      5  C   UNL     1       3.482   3.552  -1.059  1.00  0.00     0.130 A 
ATOM      6  C   UNL     1       3.288   4.777  -0.418  1.00  0.00     0.048 A 
ENDROOT
BRANCH   1   7
ATOM      7  C   UNL     1       6.075   6.803  -1.870  1.00  0.00     0.018 A 
ATOM      8  C   UNL     1       7.457   6.611  -1.888  1.00  0.00     0.133 A 
ATOM      9  C   UNL     1       8.306   7.685  -2.156  1.00  0.00     0.079 A 
ATOM     10  C   UNL     1       5.543   8.068  -2.121  1.00  0.00     0.015 A 
ATOM     11  C   UNL     1       7.774   8.950  -2.405  1.00  0.00     0.126 A 
ATOM     12  C   UNL     1       6.393   9.141  -2.388  1.00  0.00     0.040 A 
ATOM     13  F   UNL     1       7.984   5.402  -1.646  1.00  0.00    -0.206 F 
ATOM     14  F   UNL     1       8.589   9.981  -2.662  1.00  0.00    -0.207 F 
ENDBRANCH   1   7
BRANCH   4  15
ATOM     15  C   UNL     1       4.750   2.128  -2.645  1.00  0.00     0.339 C 
ATOM     16  O   UNL     1       3.909   1.520  -3.310  1.00  0.00    -0.246 OA
BRANCH  15  17
ATOM     17  O   UNL     1       6.016   1.660  -2.470  1.00  0.00    -0.478 OA
ATOM     18  H   UNL     1       6.688   2.352  -2.645  1.00  0.00     0.297 HD
ENDBRANCH  15  17
ENDBRANCH   4  15
BRANCH   5  19
ATOM     19  O   UNL     1       2.637   2.519  -0.784  1.00  0.00    -0.507 OA
ATOM     20  H   UNL     1       2.637   1.900  -1.535  1.00  0.00     0.293 HD
ENDBRANCH   5  19
TORSDOF 4
ENDMDL
MODEL 3
REMARK VINA RESULT:    -6.870      1.680      3.142
REMARK INTER + INTRA:          -8.647
REMARK INTER:                  -8.072
REMARK INTRA:                  -0.575
REMARK UNBOUND:                -0.573
REMARK SMILES O=C(O)c1cc(-c2ccc(F)cc2F)ccc1O
REMARK SMILES IDX 6 1 5 2 15 3 4 4 17 5 16 6 7 7 13 8 12 9 8 10 10 11 9 12
REMARK SMILES IDX 14 13 11 14 2 15 1 16 3 17 18 19
REMARK H PARENT 3 18 18 20
ROOT
ATOM      1  C   UNL     1       5.061   5.708  -1.622  1.00  0.00    -0.014 A 
ATOM      2  C   UNL     1       5.299   4.489  -2.255  1.00  0.00     0.028 A 
ATOM      3  C   UNL     1       4.000   5.831  -0.724  1.00  0.00     0.013 A 
ATOM      4  C   UNL     1       4.478   3.393  -1.992  1.00  0.00     0.102 A 
ATOM      5  C   UNL     1       3.418   3.516  -1.094  1.00  0.00     0.130 A 
ATOM      6  C   UNL     1       3.179   4.736  -0.460  1.00  0.00     0.048 A 
ENDROOT
BRANCH   1   7
ATOM      7  C   UNL     1       5.911   6.846  -1.895  1.00  0.00     0.018 A 
ATOM      8  C   UNL     1       5.347   8.092  -2.170  1.00  0.00     0.133 A 
ATOM      9  C   UNL     1       6.171   9.187  -2.434  1.00  0.00     0.079 A 
ATOM     10  C   UNL     1       7.298   6.696  -1.883  1.00  0.00     0.015 A 
ATOM     11  C   UNL     1       7.557   9.036  -2.422  1.00  0.00     0.126 A 
ATOM     12  C   UNL     1       8.120   7.790  -2.146  1.00  0.00     0.040 A 
ATOM     13  F   UNL     1       4.016   8.254  -2.189  1.00  0.00    -0.206 F 
ATOM     14  F   UNL     1       8.348  10.086  -2.675  1.00  0.00    -0.207 F 
ENDBRANCH   1   7
BRANCH   4  15
ATOM     15  C   UNL     1       4.745   2.129  -2.664  1.00  0.00     0.339 C 
ATOM     16  O   UNL     1       3.935   1.500  -3.350  1.00  0.00    -0.246 OA
BRANCH  15  17
ATOM     17  O   UNL     1       6.017   1.690  -2.459  1.00  0.00    -0.478 OA
ATOM     18  H   UNL     1       6.034   0.797  -2.055  1.00  0.00     0.297 HD
ENDBRANCH  15  17
ENDBRANCH   4  15
BRANCH   5  19
ATOM     19  O   UNL     1       2.604   2.456  -0.823  1.00  0.00    -0.507 OA
ATOM     20  H   UNL     1       1.684   2.705  -1.018  1.00  0.00     0.293 HD
ENDBRANCH   5  19
TORSDOF 4
ENDMDL
MODEL 4
REMARK VINA RESULT:    -6.813      1.187      1.655
REMARK INTER + INTRA:          -8.581
REMARK INTER:                  -7.820
REMARK INTRA:                  -0.761
REMARK UNBOUND:                -0.573
REMARK SMILES O=C(O)c1cc(-c2ccc(F)cc2F)ccc1O
REMARK SMILES IDX 6 1 5 2 15 3 4 4 17 5 16 6 7 7 13 8 12 9 8 10 10 11 9 12
REMARK SMILES IDX 14 13 11 14 2 15 1 16 3 17 18 19
REMARK H PARENT 3 18 18 20
ROOT
ATOM      1  C   UNL     1       5.045   5.871  -1.720  1.00  0.00    -0.014 A 
ATOM      2  C   UNL     1       4.077   6.035  -0.730  1.00  0.00     0.028 A 
ATOM      3  C   UNL     1       5.100   4.684  -2.451  1.00  0.00     0.013 A 
ATOM      4  C   UNL     1       3.164   5.013  -0.470  1.00  0.00     0.102 A 
ATOM      5  C   UNL     1       3.219   3.827  -1.201  1.00  0.00     0.130 A 
ATOM      6  C   UNL     1       4.188   3.662  -2.192  1.00  0.00     0.048 A 
ENDROOT
BRANCH   1   7
ATOM      7  C   UNL     1       5.993   6.930  -1.989  1.00  0.00     0.018 A 
ATOM      8  C   UNL     1       5.543   8.226  -2.244  1.00  0.00     0.133 A 
ATOM      9  C   UNL     1       6.461   9.244  -2.503  1.00  0.00     0.079 A 
ATOM     10  C   UNL     1       7.360   6.654  -1.992  1.00  0.00     0.015 A 
ATOM     11  C   UNL     1       7.827   8.967  -2.507  1.00  0.00     0.126 A 
ATOM     12  C   UNL     1       8.277   7.672  -2.251  1.00  0.00     0.040 A 
ATOM     13  F   UNL     1       4.232   8.508  -2.247  1.00  0.00    -0.206 F 
ATOM     14  F   UNL     1       8.709   9.944  -2.756  1.00  0.00    -0.207 F 
ENDBRANCH   1   7
BRANCH   4  15
ATOM     15  C   UNL     1       2.160   5.205   0.568  1.00  0.00     0.339 C 
ATOM     16  O   UNL     1       1.750   4.330   1.334  1.00  0.00    -0.246 OA
BRANCH  15  17
ATOM     17  O   UNL     1       1.702   6.485   0.615  1.00  0.00    -0.478 OA
ATOM     18  H   UNL     1       0.878   6.558   1.142  1.00  0.00     0.297 HD
ENDBRANCH  15  17
ENDBRANCH   4  15
BRANCH   5  19
ATOM     19  O   UNL     1       2.335   2.816  -0.964  1.00  0.00    -0.507 OA
ATOM     20  H   UNL     1       2.822   1.975  -0.911  1.00  0.00     0.293 HD
ENDBRANCH   5  19
TORSDOF 4
ENDMDL
MODEL 5
REMARK VINA RESULT:    -5.425      4.434      6.673
REMARK INTER + INTRA:          -6.949
REMARK INTER:                  -5.863
REMARK INTRA:                  -1.085
REMARK UNBOUND:                -0.573
REMARK SMILES O=C(O)c1cc(-c2ccc(F)cc2F)ccc1O
REMARK SMILES IDX 6 1 5 2 15 3 4 4 17 5 16 6 7 7 13 8 12 9 8 10 10 11 9 12
REMARK SMILES IDX 14 13 11 14 2 15 1 16 3 17 18 19
REMARK H PARENT 3 18 18 20
ROOT
ATOM      1  C   UNL     1       6.780   7.369  -2.235  1.00  0.00    -0.014 A 
ATOM      2  C   UNL     1       7.472   7.792  -3.369  1.00  0.00     0.028 A 
ATOM      3  C   UNL     1       6.787   8.152  -1.081  1.00  0.00     0.013 A 
ATOM      4  C   UNL     1       8.172   8.998  -3.351  1.00  0.00     0.102 A 
ATOM      5  C   UNL     1       8.179   9.782  -2.197  1.00  0.00     0.130 A 
ATOM      6  C   UNL     1       7.486   9.359  -1.062  1.00  0.00     0.048 A 
ENDROOT
BRANCH   1   7
ATOM      7  C   UNL     1       6.055   6.116  -2.254  1.00  0.00     0.018 A 
ATOM      8  C   UNL     1       6.685   4.936  -1.857  1.00  0.00     0.133 A 
ATOM      9  C   UNL     1       5.982   3.731  -1.877  1.00  0.00     0.079 A 
ATOM     10  C   UNL     1       4.724   6.091  -2.668  1.00  0.00     0.015 A 
ATOM     11  C   UNL     1       4.652   3.706  -2.292  1.00  0.00     0.126 A 
ATOM     12  C   UNL     1       4.022   4.886  -2.687  1.00  0.00     0.040 A 
ATOM     13  F   UNL     1       7.965   4.943  -1.458  1.00  0.00    -0.206 F 
ATOM     14  F   UNL     1       3.977   2.549  -2.311  1.00  0.00    -0.207 F 
ENDBRANCH   1   7
BRANCH   4  15
ATOM     15  C   UNL     1       8.888   9.422  -4.546  1.00  0.00     0.339 C 
ATOM     16  O   UNL     1       9.409  10.528  -4.711  1.00  0.00    -0.246 OA
BRANCH  15  17
ATOM     17  O   UNL     1       8.932   8.450  -5.496  1.00  0.00    -0.478 OA
ATOM     18  H   UNL     1       8.415   7.659  -5.233  1.00  0.00     0.297 HD
ENDBRANCH  15  17
ENDBRANCH   4  15
BRANCH   5  19
ATOM     19  O   UNL     1       8.856  10.965  -2.158  1.00  0.00    -0.507 OA
ATOM     20  H   UNL     1       9.119  11.149  -1.239  1.00  0.00     0.293 HD
ENDBRANCH   5  19
TORSDOF 4
ENDMDL
MODEL 6
REMARK VINA RESULT:    -5.383      4.579      6.938
REMARK INTER + INTRA:          -6.900
REMARK INTER:                  -5.834
REMARK INTRA:                  -1.065
REMARK UNBOUND:                -0.573
REMARK SMILES O=C(O)c1cc(-c2ccc(F)cc2F)ccc1O
REMARK SMILES IDX 6 1 5 2 15 3 4 4 17 5 16 6 7 7 13 8 12 9 8 10 10 11 9 12
REMARK SMILES IDX 14 13 11 14 2 15 1 16 3 17 18 19
REMARK H PARENT 3 18 18 20
ROOT
ATOM      1  C   UNL     1       6.738   7.936  -2.138  1.00  0.00    -0.014 A 
ATOM      2  C   UNL     1       7.303   8.036  -3.409  1.00  0.00     0.028 A 
ATOM      3  C   UNL     1       7.069   8.866  -1.153  1.00  0.00     0.013 A 
ATOM      4  C   UNL     1       8.199   9.066  -3.695  1.00  0.00     0.102 A 
ATOM      5  C   UNL     1       8.530   9.996  -2.710  1.00  0.00     0.130 A 
ATOM      6  C   UNL     1       7.964   9.896  -1.438  1.00  0.00     0.048 A 
ENDROOT
BRANCH   1   7
ATOM      7  C   UNL     1       5.809   6.867  -1.840  1.00  0.00     0.018 A 
ATOM      8  C   UNL     1       4.434   7.093  -1.913  1.00  0.00     0.133 A 
ATOM      9  C   UNL     1       3.542   6.059  -1.625  1.00  0.00     0.079 A 
ATOM     10  C   UNL     1       6.292   5.608  -1.480  1.00  0.00     0.015 A 
ATOM     11  C   UNL     1       4.025   4.801  -1.264  1.00  0.00     0.126 A 
ATOM     12  C   UNL     1       5.400   4.576  -1.193  1.00  0.00     0.040 A 
ATOM     13  F   UNL     1       3.954   8.297  -2.254  1.00  0.00    -0.206 F 
ATOM     14  F   UNL     1       3.169   3.809  -0.987  1.00  0.00    -0.207 F 
ENDBRANCH   1   7
BRANCH   4  15
ATOM     15  C   UNL     1       8.778   9.153  -5.029  1.00  0.00     0.339 C 
ATOM     16  O   UNL     1       9.800   9.777  -5.324  1.00  0.00    -0.246 OA
BRANCH  15  17
ATOM     17  O   UNL     1       8.061   8.456  -5.952  1.00  0.00    -0.478 OA
ATOM     18  H   UNL     1       7.140   8.785  -6.023  1.00  0.00     0.297 HD
ENDBRANCH  15  17
ENDBRANCH   4  15
BRANCH   5  19
ATOM     19  O   UNL     1       9.403  11.010  -2.969  1.00  0.00    -0.507 OA
ATOM     20  H   UNL     1       9.111  11.484  -3.767  1.00  0.00     0.293 HD
ENDBRANCH   5  19
TORSDOF 4
ENDMDL
MODEL 7
REMARK VINA RESULT:    -5.381      4.325      6.586
REMARK INTER + INTRA:          -6.898
REMARK INTER:                  -5.814
REMARK INTRA:                  -1.083
REMARK UNBOUND:                -0.573
REMARK SMILES O=C(O)c1cc(-c2ccc(F)cc2F)ccc1O
REMARK SMILES IDX 6 1 5 2 15 3 4 4 17 5 16 6 7 7 13 8 12 9 8 10 10 11 9 12
REMARK SMILES IDX 14 13 11 14 2 15 1 16 3 17 18 19
REMARK H PARENT 3 18 18 20
ROOT
ATOM      1  C   UNL     1       6.594   7.978  -2.074  1.00  0.00    -0.014 A 
ATOM      2  C   UNL     1       7.017   8.879  -1.098  1.00  0.00     0.028 A 
ATOM      3  C   UNL     1       7.134   8.038  -3.359  1.00  0.00     0.013 A 
ATOM      4  C   UNL     1       7.980   9.841  -1.405  1.00  0.00     0.102 A 
ATOM      5  C   UNL     1       8.520   9.900  -2.690  1.00  0.00     0.130 A 
ATOM      6  C   UNL     1       8.097   8.998  -3.667  1.00  0.00     0.048 A 
ENDROOT
BRANCH   1   7
ATOM      7  C   UNL     1       5.594   6.982  -1.757  1.00  0.00     0.018 A 
ATOM      8  C   UNL     1       4.238   7.284  -1.888  1.00  0.00     0.133 A 
ATOM      9  C   UNL     1       3.277   6.320  -1.581  1.00  0.00     0.079 A 
ATOM     10  C   UNL     1       5.988   5.718  -1.319  1.00  0.00     0.015 A 
ATOM     11  C   UNL     1       3.671   5.057  -1.142  1.00  0.00     0.126 A 
ATOM     12  C   UNL     1       5.027   4.755  -1.012  1.00  0.00     0.040 A 
ATOM     13  F   UNL     1       3.842   8.495  -2.305  1.00  0.00    -0.206 F 
ATOM     14  F   UNL     1       2.749   4.131  -0.847  1.00  0.00    -0.207 F 
ENDBRANCH   1   7
BRANCH   4  15
ATOM     15  C   UNL     1       8.409  10.772  -0.371  1.00  0.00     0.339 C 
ATOM     16  O   UNL     1       9.352  11.560  -0.467  1.00  0.00    -0.246 OA
BRANCH  15  17
ATOM     17  O   UNL     1       7.642  10.690   0.751  1.00  0.00    -0.478 OA
ATOM     18  H   UNL     1       7.324  11.570   1.041  1.00  0.00     0.297 HD
ENDBRANCH  15  17
ENDBRANCH   4  15
BRANCH   5  19
ATOM     19  O   UNL     1       9.463  10.831  -3.010  1.00  0.00    -0.507 OA
ATOM     20  H   UNL     1       9.033  11.571  -3.473  1.00  0.00     0.293 HD
ENDBRANCH   5  19
TORSDOF 4
ENDMDL
MODEL 8
REMARK VINA RESULT:    -5.370      4.004      6.219
REMARK INTER + INTRA:          -6.885
REMARK INTER:                  -5.800
REMARK INTRA:                  -1.085
REMARK UNBOUND:                -0.573
REMARK SMILES O=C(O)c1cc(-c2ccc(F)cc2F)ccc1O
REMARK SMILES IDX 6 1 5 2 15 3 4 4 17 5 16 6 7 7 13 8 12 9 8 10 10 11 9 12
REMARK SMILES IDX 14 13 11 14 2 15 1 16 3 17 18 19
REMARK H PARENT 3 18 18 20
ROOT
ATOM      1  C   UNL     1       6.910   7.666  -2.144  1.00  0.00    -0.014 A 
ATOM      2  C   UNL     1       7.083   8.502  -1.041  1.00  0.00     0.028 A 
ATOM      3  C   UNL     1       7.518   7.981  -3.359  1.00  0.00     0.013 A 
ATOM      4  C   UNL     1       7.863   9.654  -1.154  1.00  0.00     0.102 A 
ATOM      5  C   UNL     1       8.471   9.968  -2.369  1.00  0.00     0.130 A 
ATOM      6  C   UNL     1       8.299   9.131  -3.472  1.00  0.00     0.048 A 
ENDROOT
BRANCH   1   7
ATOM      7  C   UNL     1       6.100   6.473  -2.028  1.00  0.00     0.018 A 
ATOM      8  C   UNL     1       6.695   5.250  -1.715  1.00  0.00     0.133 A 
ATOM      9  C   UNL     1       5.909   4.102  -1.605  1.00  0.00     0.079 A 
ATOM     10  C   UNL     1       4.722   6.548  -2.230  1.00  0.00     0.015 A 
ATOM     11  C   UNL     1       4.532   4.177  -1.807  1.00  0.00     0.126 A 
ATOM     12  C   UNL     1       3.938   5.400  -2.119  1.00  0.00     0.040 A 
ATOM     13  F   UNL     1       8.018   5.161  -1.521  1.00  0.00    -0.206 F 
ATOM     14  F   UNL     1       3.778   3.075  -1.702  1.00  0.00    -0.207 F 
ENDBRANCH   1   7
BRANCH   4  15
ATOM     15  C   UNL     1       8.031  10.514   0.010  1.00  0.00     0.339 C 
ATOM     16  O   UNL     1       8.170  10.123   1.172  1.00  0.00    -0.246 OA
BRANCH  15  17
ATOM     17  O   UNL     1       8.022  11.835  -0.317  1.00  0.00    -0.478 OA
ATOM     18  H   UNL     1       7.340  12.329   0.184  1.00  0.00     0.297 HD
ENDBRANCH  15  17
ENDBRANCH   4  15
BRANCH   5  19
ATOM     19  O   UNL     1       9.238  11.087  -2.500  1.00  0.00    -0.507 OA
ATOM     20  H   UNL     1       8.824  11.815  -2.004  1.00  0.00     0.293 HD
ENDBRANCH   5  19
TORSDOF 4
ENDMDL
MODEL 9
REMARK VINA RESULT:    -5.108      1.821      2.997
REMARK INTER + INTRA:          -6.577
REMARK INTER:                  -5.759
REMARK INTRA:                  -0.818
REMARK UNBOUND:                -0.573
REMARK SMILES O=C(O)c1cc(-c2ccc(F)cc2F)ccc1O
REMARK SMILES IDX 6 1 5 2 15 3 4 4 17 5 16 6 7 7 13 8 12 9 8 10 10 11 9 12
REMARK SMILES IDX 14 13 11 14 2 15 1 16 3 17 18 19
REMARK H PARENT 3 18 18 20
ROOT
ATOM      1  C   UNL     1       5.590   6.716  -2.057  1.00  0.00    -0.014 A 
ATOM      2  C   UNL     1       5.952   5.402  -2.352  1.00  0.00     0.028 A 
ATOM      3  C   UNL     1       4.304   6.999  -1.597  1.00  0.00     0.013 A 
ATOM      4  C   UNL     1       5.028   4.370  -2.188  1.00  0.00     0.102 A 
ATOM      5  C   UNL     1       3.741   4.653  -1.729  1.00  0.00     0.130 A 
ATOM      6  C   UNL     1       3.379   5.968  -1.434  1.00  0.00     0.048 A 
ENDROOT
BRANCH   1   7
ATOM      7  C   UNL     1       6.548   7.787  -2.227  1.00  0.00     0.018 A 
ATOM      8  C   UNL     1       7.182   7.971  -3.457  1.00  0.00     0.133 A 
ATOM      9  C   UNL     1       8.104   9.005  -3.617  1.00  0.00     0.079 A 
ATOM     10  C   UNL     1       6.836   8.637  -1.160  1.00  0.00     0.015 A 
ATOM     11  C   UNL     1       8.393   9.854  -2.550  1.00  0.00     0.126 A 
ATOM     12  C   UNL     1       7.758   9.670  -1.321  1.00  0.00     0.040 A 
ATOM     13  F   UNL     1       6.918   7.161  -4.492  1.00  0.00    -0.206 F 
ATOM     14  F   UNL     1       9.279  10.847  -2.703  1.00  0.00    -0.207 F 
ENDBRANCH   1   7
BRANCH   4  15
ATOM     15  C   UNL     1       5.426   3.005  -2.502  1.00  0.00     0.339 C 
ATOM     16  O   UNL     1       6.509   2.493  -2.212  1.00  0.00    -0.246 OA
BRANCH  15  17
ATOM     17  O   UNL     1       4.455   2.322  -3.167  1.00  0.00    -0.478 OA
ATOM     18  H   UNL     1       3.825   1.891  -2.552  1.00  0.00     0.297 HD
ENDBRANCH  15  17
ENDBRANCH   4  15
BRANCH   5  19
ATOM     19  O   UNL     1       2.824   3.659  -1.562  1.00  0.00    -0.507 OA
ATOM     20  H   UNL     1       2.347   3.523  -2.399  1.00  0.00     0.293 HD
ENDBRANCH   5  19
TORSDOF 4
ENDMDL
