MODEL 1
REMARK VINA RESULT:    -7.051      0.000      0.000
REMARK INTER + INTRA:          -8.845
REMARK INTER:                  -8.288
REMARK INTRA:                  -0.557
REMARK UNBOUND:                -0.557
REMARK SMILES O=C(O)c1cc(-c2ccc(F)cc2F)ccc1O
REMARK SMILES IDX 6 1 5 2 15 3 4 4 17 5 16 6 7 7 13 8 12 9 8 10 10 11 9 12
REMARK SMILES IDX 14 13 11 14 2 15 1 16 3 17 18 19
REMARK H PARENT 3 18 18 20
ROOT
ATOM      1  C   UNL     1       5.729  -6.557   0.841  1.00  0.00    -0.014 A 
ATOM      2  C   UNL     1       6.165  -5.263   1.123  1.00  0.00     0.028 A 
ATOM      3  C   UNL     1       4.434  -6.770   0.369  1.00  0.00     0.013 A 
ATOM      4  C   UNL     1       5.304  -4.180   0.935  1.00  0.00     0.102 A 
ATOM      5  C   UNL     1       4.009  -4.393   0.463  1.00  0.00     0.130 A 
ATOM      6  C   UNL     1       3.574  -5.689   0.181  1.00  0.00     0.048 A 
ENDROOT
BRANCH   1   7
ATOM      7  C   UNL     1       6.621  -7.680   1.037  1.00  0.00     0.018 A 
ATOM      8  C   UNL     1       7.946  -7.606   0.608  1.00  0.00     0.133 A 
ATOM      9  C   UNL     1       8.802  -8.691   0.799  1.00  0.00     0.079 A 
ATOM     10  C   UNL     1       6.152  -8.837   1.658  1.00  0.00     0.015 A 
ATOM     11  C   UNL     1       8.333  -9.849   1.419  1.00  0.00     0.126 A 
ATOM     12  C   UNL     1       7.008  -9.921   1.849  1.00  0.00     0.040 A 
ATOM     13  F   UNL     1       8.411  -6.502   0.006  1.00  0.00    -0.206 F 
ATOM     14  F   UNL     1       9.154 -10.891   1.603  1.00  0.00    -0.207 F 
ENDBRANCH   1   7
BRANCH   4  15
ATOM     15  C   UNL     1       5.778  -2.837   1.235  1.00  0.00     0.339 C 
ATOM     16  O   UNL     1       5.223  -2.037   1.993  1.00  0.00    -0.246 OA
BRANCH  15  17
ATOM     17  O   UNL     1       6.932  -2.535   0.580  1.00  0.00    -0.478 OA
ATOM     18  H   UNL     1       7.184  -3.237  -0.057  1.00  0.00     0.297 HD
ENDBRANCH  15  17
ENDBRANCH   4  15
BRANCH   5  19
ATOM     19  O   UNL     1       3.153  -3.350   0.272  1.00  0.00    -0.507 OA
ATOM     20  H   UNL     1       2.264  -3.698   0.089  1.00  0.00     0.293 HD
ENDBRANCH   5  19
TORSDOF 4
ENDMDL
MODEL 2
REMARK VINA RESULT:    -6.971      1.702      3.186
REMARK INTER + INTRA:          -8.751
REMARK INTER:                  -8.036
REMARK INTRA:                  -0.714
REMARK UNBOUND:                -0.557
REMARK SMILES O=C(O)c1cc(-c2ccc(F)cc2F)ccc1O
REMARK SMILES IDX 6 1 5 2 15 3 4 4 17 5 16 6 7 7 13 8 12 9 8 10 10 11 9 12
REMARK SMILES IDX 14 13 11 14 2 15 1 16 3 17 18 19
REMARK H PARENT 3 18 18 20
ROOT
ATOM      1  C   UNL     1       5.695  -6.640   0.915  1.00  0.00    -0.014 A 
ATOM      2  C   UNL     1       4.453  -6.916   0.345  1.00  0.00     0.028 A 
ATOM      3  C   UNL     1       6.023  -5.333   1.275  1.00  0.00     0.013 A 
ATOM      4  C   UNL     1       3.538  -5.884   0.133  1.00  0.00     0.102 A 
ATOM      5  C   UNL     1       3.866  -4.577   0.492  1.00  0.00     0.130 A 
ATOM      6  C   UNL     1       5.109  -4.301   1.063  1.00  0.00     0.048 A 
ENDROOT
BRANCH   1   7
ATOM      7  C   UNL     1       6.645  -7.710   1.134  1.00  0.00     0.018 A 
ATOM      8  C   UNL     1       6.243  -8.885   1.770  1.00  0.00     0.133 A 
ATOM      9  C   UNL     1       7.162  -9.914   1.979  1.00  0.00     0.079 A 
ATOM     10  C   UNL     1       7.965  -7.564   0.708  1.00  0.00     0.015 A 
ATOM     11  C   UNL     1       8.482  -9.767   1.553  1.00  0.00     0.126 A 
ATOM     12  C   UNL     1       8.883  -8.592   0.917  1.00  0.00     0.040 A 
ATOM     13  F   UNL     1       4.979  -9.040   2.188  1.00  0.00    -0.206 F 
ATOM     14  F   UNL     1       9.365 -10.754   1.753  1.00  0.00    -0.207 F 
ENDBRANCH   1   7
BRANCH   4  15
ATOM     15  C   UNL     1       2.246  -6.193  -0.464  1.00  0.00     0.339 C 
ATOM     16  O   UNL     1       1.633  -5.469  -1.252  1.00  0.00    -0.246 OA
BRANCH  15  17
ATOM     17  O   UNL     1       1.762  -7.398  -0.058  1.00  0.00    -0.478 OA
ATOM     18  H   UNL     1       2.483  -8.029   0.150  1.00  0.00     0.297 HD
ENDBRANCH  15  17
ENDBRANCH   4  15
BRANCH   5  19
ATOM     19  O   UNL     1       2.986  -3.555   0.294  1.00  0.00    -0.507 OA
ATOM     20  H   UNL     1       2.455  -3.743  -0.499  1.00  0.00     0.293 HD
ENDBRANCH   5  19
TORSDOF 4
ENDMDL
MODEL 3
REMARK VINA RESULT:    -6.956      1.301      2.750
REMARK INTER + INTRA:          -8.733
REMARK INTER:                  -8.017
REMARK INTRA:                  -0.717
REMARK UNBOUND:                -0.557
REMARK SMILES O=C(O)c1cc(-c2ccc(F)cc2F)ccc1O
REMARK SMILES IDX 6 1 5 2 15 3 4 4 17 5 16 6 7 7 13 8 12 9 8 10 10 11 9 12
REMARK SMILES IDX 14 13 11 14 2 15 1 16 3 17 18 19
REMARK H PARENT 3 18 18 20
ROOT
ATOM      1  C   UNL     1       5.719  -6.620   0.875  1.00  0.00    -0.014 A 
ATOM      2  C   UNL     1       4.473  -6.902   0.317  1.00  0.00     0.028 A 
ATOM      3  C   UNL     1       6.045  -5.311   1.228  1.00  0.00     0.013 A 
ATOM      4  C   UNL     1       3.551  -5.875   0.112  1.00  0.00     0.102 A 
ATOM      5  C   UNL     1       3.877  -4.566   0.465  1.00  0.00     0.130 A 
ATOM      6  C   UNL     1       5.124  -4.283   1.024  1.00  0.00     0.048 A 
ENDROOT
BRANCH   1   7
ATOM      7  C   UNL     1       6.676  -7.685   1.087  1.00  0.00     0.018 A 
ATOM      8  C   UNL     1       7.990  -7.545   0.637  1.00  0.00     0.133 A 
ATOM      9  C   UNL     1       8.909  -8.574   0.843  1.00  0.00     0.079 A 
ATOM     10  C   UNL     1       6.283  -8.851   1.743  1.00  0.00     0.015 A 
ATOM     11  C   UNL     1       8.516  -9.741   1.498  1.00  0.00     0.126 A 
ATOM     12  C   UNL     1       7.203  -9.879   1.948  1.00  0.00     0.040 A 
ATOM     13  F   UNL     1       8.383  -6.432   0.002  1.00  0.00    -0.206 F 
ATOM     14  F   UNL     1       9.398 -10.729   1.696  1.00  0.00    -0.207 F 
ENDBRANCH   1   7
BRANCH   4  15
ATOM     15  C   UNL     1       2.255  -6.191  -0.472  1.00  0.00     0.339 C 
ATOM     16  O   UNL     1       1.629  -5.470  -1.253  1.00  0.00    -0.246 OA
BRANCH  15  17
ATOM     17  O   UNL     1       1.782  -7.399  -0.061  1.00  0.00    -0.478 OA
ATOM     18  H   UNL     1       1.225  -7.825  -0.747  1.00  0.00     0.297 HD
ENDBRANCH  15  17
ENDBRANCH   4  15
BRANCH   5  19
ATOM     19  O   UNL     1       2.990  -3.548   0.274  1.00  0.00    -0.507 OA
ATOM     20  H   UNL     1       2.380  -3.790  -0.445  1.00  0.00     0.293 HD
ENDBRANCH   5  19
TORSDOF 4
ENDMDL
MODEL 4
REMARK VINA RESULT:    -5.327      4.396      6.709
REMARK INTER + INTRA:          -6.818
REMARK INTER:                  -5.761
REMARK INTRA:                  -1.057
REMARK UNBOUND:                -0.557
REMARK SMILES O=C(O)c1cc(-c2ccc(F)cc2F)ccc1O
REMARK SMILES IDX 6 1 5 2 15 3 4 4 17 5 16 6 7 7 13 8 12 9 8 10 10 11 9 12
REMARK SMILES IDX 14 13 11 14 2 15 1 16 3 17 18 19
REMARK H PARENT 3 18 18 20
ROOT
ATOM      1  C   UNL     1       7.519  -8.576   1.205  1.00  0.00    -0.014 A 
ATOM      2  C   UNL     1       7.387  -9.678   0.361  1.00  0.00     0.028 A 
ATOM      3  C   UNL     1       8.467  -8.591   2.228  1.00  0.00     0.013 A 
ATOM      4  C   UNL     1       8.202 -10.796   0.539  1.00  0.00     0.102 A 
ATOM      5  C   UNL     1       9.151 -10.810   1.562  1.00  0.00     0.130 A 
ATOM      6  C   UNL     1       9.283  -9.707   2.407  1.00  0.00     0.048 A 
ENDROOT
BRANCH   1   7
ATOM      7  C   UNL     1       6.672  -7.417   1.021  1.00  0.00     0.018 A 
ATOM      8  C   UNL     1       7.153  -6.300   0.338  1.00  0.00     0.133 A 
ATOM      9  C   UNL     1       6.333  -5.184   0.163  1.00  0.00     0.079 A 
ATOM     10  C   UNL     1       5.373  -7.419   1.528  1.00  0.00     0.015 A 
ATOM     11  C   UNL     1       5.034  -5.186   0.671  1.00  0.00     0.126 A 
ATOM     12  C   UNL     1       4.554  -6.304   1.353  1.00  0.00     0.040 A 
ATOM     13  F   UNL     1       8.400  -6.280  -0.154  1.00  0.00    -0.206 F 
ATOM     14  F   UNL     1       4.247  -4.116   0.504  1.00  0.00    -0.207 F 
ENDBRANCH   1   7
BRANCH   4  15
ATOM     15  C   UNL     1       8.049 -11.936  -0.354  1.00  0.00     0.339 C 
ATOM     16  O   UNL     1       8.459 -13.078  -0.130  1.00  0.00    -0.246 OA
BRANCH  15  17
ATOM     17  O   UNL     1       7.386 -11.614  -1.498  1.00  0.00    -0.478 OA
ATOM     18  H   UNL     1       7.025 -10.703  -1.465  1.00  0.00     0.297 HD
ENDBRANCH  15  17
ENDBRANCH   4  15
BRANCH   5  19
ATOM     19  O   UNL     1       9.958 -11.892   1.752  1.00  0.00    -0.507 OA
ATOM     20  H   UNL     1      10.321 -12.172   0.894  1.00  0.00     0.293 HD
ENDBRANCH   5  19
TORSDOF 4
ENDMDL
MODEL 5
REMARK VINA RESULT:    -5.304      4.081      6.314
REMARK INTER + INTRA:          -6.791
REMARK INTER:                  -5.713
REMARK INTRA:                  -1.078
REMARK UNBOUND:                -0.557
REMARK SMILES O=C(O)c1cc(-c2ccc(F)cc2F)ccc1O
REMARK SMILES IDX 6 1 5 2 15 3 4 4 17 5 16 6 7 7 13 8 12 9 8 10 10 11 9 12
REMARK SMILES IDX 14 13 11 14 2 15 1 16 3 17 18 19
REMARK H PARENT 3 18 18 20
ROOT
ATOM      1  C   UNL     1       7.499  -8.430   1.171  1.00  0.00    -0.014 A 
ATOM      2  C   UNL     1       8.443  -8.552   2.189  1.00  0.00     0.028 A 
ATOM      3  C   UNL     1       7.313  -9.473   0.263  1.00  0.00     0.013 A 
ATOM      4  C   UNL     1       9.204  -9.717   2.300  1.00  0.00     0.102 A 
ATOM      5  C   UNL     1       9.018 -10.759   1.392  1.00  0.00     0.130 A 
ATOM      6  C   UNL     1       8.073 -10.637   0.373  1.00  0.00     0.048 A 
ENDROOT
BRANCH   1   7
ATOM      7  C   UNL     1       6.711  -7.222   1.054  1.00  0.00     0.018 A 
ATOM      8  C   UNL     1       7.212  -6.124   0.354  1.00  0.00     0.133 A 
ATOM      9  C   UNL     1       6.449  -4.961   0.244  1.00  0.00     0.079 A 
ATOM     10  C   UNL     1       5.448  -7.158   1.642  1.00  0.00     0.015 A 
ATOM     11  C   UNL     1       5.187  -4.896   0.833  1.00  0.00     0.126 A 
ATOM     12  C   UNL     1       4.686  -5.995   1.531  1.00  0.00     0.040 A 
ATOM     13  F   UNL     1       8.425  -6.169  -0.215  1.00  0.00    -0.206 F 
ATOM     14  F   UNL     1       4.454  -3.781   0.728  1.00  0.00    -0.207 F 
ENDBRANCH   1   7
BRANCH   4  15
ATOM     15  C   UNL     1      10.185  -9.824   3.371  1.00  0.00     0.339 C 
ATOM     16  O   UNL     1      10.814 -10.844   3.662  1.00  0.00    -0.246 OA
BRANCH  15  17
ATOM     17  O   UNL     1      10.349  -8.653   4.043  1.00  0.00    -0.478 OA
ATOM     18  H   UNL     1      10.139  -8.746   4.996  1.00  0.00     0.297 HD
ENDBRANCH  15  17
ENDBRANCH   4  15
BRANCH   5  19
ATOM     19  O   UNL     1       9.750 -11.906   1.484  1.00  0.00    -0.507 OA
ATOM     20  H   UNL     1      10.104 -12.128   0.605  1.00  0.00     0.293 HD
ENDBRANCH   5  19
TORSDOF 4
ENDMDL
MODEL 6
REMARK VINA RESULT:    -5.303      1.746      3.036
REMARK INTER + INTRA:          -6.790
REMARK INTER:                  -6.268
REMARK INTRA:                  -0.522
REMARK UNBOUND:                -0.557
REMARK SMILES O=C(O)c1cc(-c2ccc(F)cc2F)ccc1O
REMARK SMILES IDX 6 1 5 2 15 3 4 4 17 5 16 6 7 7 13 8 12 9 8 10 10 11 9 12
REMARK SMILES IDX 14 13 11 14 2 15 1 16 3 17 18 19
REMARK H PARENT 3 18 18 20
ROOT
ATOM      1  C   UNL     1       5.995  -6.867   0.940  1.00  0.00    -0.014 A 
ATOM      2  C   UNL     1       4.693  -7.167   0.542  1.00  0.00     0.028 A 
ATOM      3  C   UNL     1       6.390  -5.538   1.087  1.00  0.00     0.013 A 
ATOM      4  C   UNL     1       3.785  -6.138   0.289  1.00  0.00     0.102 A 
ATOM      5  C   UNL     1       4.181  -4.809   0.436  1.00  0.00     0.130 A 
ATOM      6  C   UNL     1       5.484  -4.508   0.835  1.00  0.00     0.048 A 
ENDROOT
BRANCH   1   7
ATOM      7  C   UNL     1       6.937  -7.935   1.201  1.00  0.00     0.018 A 
ATOM      8  C   UNL     1       6.918  -9.091   0.421  1.00  0.00     0.133 A 
ATOM      9  C   UNL     1       7.828 -10.118   0.677  1.00  0.00     0.079 A 
ATOM     10  C   UNL     1       7.865  -7.804   2.234  1.00  0.00     0.015 A 
ATOM     11  C   UNL     1       8.755  -9.988   1.710  1.00  0.00     0.126 A 
ATOM     12  C   UNL     1       8.774  -8.830   2.488  1.00  0.00     0.040 A 
ATOM     13  F   UNL     1       6.031  -9.234  -0.573  1.00  0.00    -0.206 F 
ATOM     14  F   UNL     1       9.629 -10.972   1.955  1.00  0.00    -0.207 F 
ENDBRANCH   1   7
BRANCH   4  15
ATOM     15  C   UNL     1       2.430  -6.473  -0.127  1.00  0.00     0.339 C 
ATOM     16  O   UNL     1       1.761  -5.845  -0.951  1.00  0.00    -0.246 OA
BRANCH  15  17
ATOM     17  O   UNL     1       1.955  -7.582   0.501  1.00  0.00    -0.478 OA
ATOM     18  H   UNL     1       2.678  -8.181   0.782  1.00  0.00     0.297 HD
ENDBRANCH  15  17
ENDBRANCH   4  15
BRANCH   5  19
ATOM     19  O   UNL     1       3.310  -3.788   0.195  1.00  0.00    -0.507 OA
ATOM     20  H   UNL     1       3.742  -2.944   0.412  1.00  0.00     0.293 HD
ENDBRANCH   5  19
TORSDOF 4
ENDMDL
MODEL 7
REMARK VINA RESULT:    -4.234      8.714     10.818
REMARK INTER + INTRA:          -5.534
REMARK INTER:                  -4.478
REMARK INTRA:                  -1.056
REMARK UNBOUND:                -0.557
REMARK SMILES O=C(O)c1cc(-c2ccc(F)cc2F)ccc1O
REMARK SMILES IDX 6 1 5 2 15 3 4 4 17 5 16 6 7 7 13 8 12 9 8 10 10 11 9 12
REMARK SMILES IDX 14 13 11 14 2 15 1 16 3 17 18 19
REMARK H PARENT 3 18 18 20
ROOT
ATOM      1  C   UNL     1      10.222 -14.677  -2.822  1.00  0.00    -0.014 A 
ATOM      2  C   UNL     1      10.464 -15.015  -1.492  1.00  0.00     0.028 A 
ATOM      3  C   UNL     1       9.328 -13.650  -3.129  1.00  0.00     0.013 A 
ATOM      4  C   UNL     1       9.814 -14.328  -0.466  1.00  0.00     0.102 A 
ATOM      5  C   UNL     1       8.921 -13.301  -0.773  1.00  0.00     0.130 A 
ATOM      6  C   UNL     1       8.678 -12.962  -2.105  1.00  0.00     0.048 A 
ENDROOT
BRANCH   1   7
ATOM      7  C   UNL     1      10.895 -15.390  -3.886  1.00  0.00     0.018 A 
ATOM      8  C   UNL     1      12.059 -14.869  -4.452  1.00  0.00     0.133 A 
ATOM      9  C   UNL     1      12.704 -15.560  -5.478  1.00  0.00     0.079 A 
ATOM     10  C   UNL     1      10.377 -16.601  -4.345  1.00  0.00     0.015 A 
ATOM     11  C   UNL     1      12.187 -16.771  -5.937  1.00  0.00     0.126 A 
ATOM     12  C   UNL     1      11.023 -17.291  -5.370  1.00  0.00     0.040 A 
ATOM     13  F   UNL     1      12.568 -13.705  -4.024  1.00  0.00    -0.206 F 
ATOM     14  F   UNL     1      12.806 -17.435  -6.921  1.00  0.00    -0.207 F 
ENDBRANCH   1   7
BRANCH   4  15
ATOM     15  C   UNL     1      10.082 -14.697   0.917  1.00  0.00     0.339 C 
ATOM     16  O   UNL     1      10.039 -15.843   1.371  1.00  0.00    -0.246 OA
BRANCH  15  17
ATOM     17  O   UNL     1      10.397 -13.621   1.688  1.00  0.00    -0.478 OA
ATOM     18  H   UNL     1      11.364 -13.461   1.713  1.00  0.00     0.297 HD
ENDBRANCH  15  17
ENDBRANCH   4  15
BRANCH   5  19
ATOM     19  O   UNL     1       8.276 -12.617   0.214  1.00  0.00    -0.507 OA
ATOM     20  H   UNL     1       7.385 -12.990   0.328  1.00  0.00     0.293 HD
ENDBRANCH   5  19
TORSDOF 4
ENDMDL
MODEL 8
REMARK VINA RESULT:    -4.223      6.169      8.539
REMARK INTER + INTRA:          -5.521
REMARK INTER:                  -4.450
REMARK INTRA:                  -1.072
REMARK UNBOUND:                -0.557
REMARK SMILES O=C(O)c1cc(-c2ccc(F)cc2F)ccc1O
REMARK SMILES IDX 6 1 5 2 15 3 4 4 17 5 16 6 7 7 13 8 12 9 8 10 10 11 9 12
REMARK SMILES IDX 14 13 11 14 2 15 1 16 3 17 18 19
REMARK H PARENT 3 18 18 20
ROOT
ATOM      1  C   UNL     1       8.466 -11.740  -0.248  1.00  0.00    -0.014 A 
ATOM      2  C   UNL     1       9.049 -12.749   0.518  1.00  0.00     0.028 A 
ATOM      3  C   UNL     1       8.267 -11.929  -1.615  1.00  0.00     0.013 A 
ATOM      4  C   UNL     1       9.434 -13.948  -0.084  1.00  0.00     0.102 A 
ATOM      5  C   UNL     1       9.235 -14.136  -1.451  1.00  0.00     0.130 A 
ATOM      6  C   UNL     1       8.651 -13.126  -2.217  1.00  0.00     0.048 A 
ENDROOT
BRANCH   1   7
ATOM      7  C   UNL     1       8.067 -10.496   0.375  1.00  0.00     0.018 A 
ATOM      8  C   UNL     1       6.836 -10.401   1.025  1.00  0.00     0.133 A 
ATOM      9  C   UNL     1       6.456  -9.199   1.624  1.00  0.00     0.079 A 
ATOM     10  C   UNL     1       8.918  -9.392   0.327  1.00  0.00     0.015 A 
ATOM     11  C   UNL     1       7.306  -8.095   1.574  1.00  0.00     0.126 A 
ATOM     12  C   UNL     1       8.537  -8.192   0.926  1.00  0.00     0.040 A 
ATOM     13  F   UNL     1       6.006 -11.452   1.079  1.00  0.00    -0.206 F 
ATOM     14  F   UNL     1       6.942  -6.942   2.149  1.00  0.00    -0.207 F 
ENDBRANCH   1   7
BRANCH   4  15
ATOM     15  C   UNL     1      10.041 -14.989   0.734  1.00  0.00     0.339 C 
ATOM     16  O   UNL     1      10.512 -16.046   0.308  1.00  0.00    -0.246 OA
BRANCH  15  17
ATOM     17  O   UNL     1      10.040 -14.675   2.058  1.00  0.00    -0.478 OA
ATOM     18  H   UNL     1      10.905 -14.865   2.478  1.00  0.00     0.297 HD
ENDBRANCH  15  17
ENDBRANCH   4  15
BRANCH   5  19
ATOM     19  O   UNL     1       9.603 -15.300  -2.058  1.00  0.00    -0.507 OA
ATOM     20  H   UNL     1      10.426 -15.152  -2.555  1.00  0.00     0.293 HD
ENDBRANCH   5  19
TORSDOF 4
ENDMDL
